

 Parallel Execution: Process Information
 ==============================================================================
 Rank   Node Name                              NodeID   MyNodeRank  NodeMaster
    0   cu09                                      0          0          0
    1   cu09                                      0          1         -1
 ==============================================================================


May use up to 45289MB of RAM as shared memory on node 0
 
TITLE Ln

UNITS
    length Angstrom
    angle  Degree
END

xc
hybrid PBE0
END

eprint
OrbPopER -50 10
scf eigvec eigval
end

RELATIVISTIC scalar ZORA

ATOMS
La       0.0 0.0 0.0
END

IRREPOCCUPATIONS
S 5 // 5
p 12//12
d 11//10
END

Charge 2 1
UNRESTRICTED
!symmetry nosym

BECKEGRID
Quality good
End

SAVE  TAPE21

SCF
iterations 300
!converge 1.0e-6 1.0e-6
mixing 0.02
diis n=10 ok=0.02 cyc=150
END

A1FIT 10.0

Fragments
La t21.La
End

 *******************************************************************************
 *                                                                             *
 *  -------------------------------------                                      *
 *   Amsterdam Density Functional  (ADF)         2019                          *
 *  -------------------------------------                                      *
 *                                               r74351 2019-04-25             *
 *                                                                             *
 *                                                                             *
 *                              =================                              *
 *                              |               |                              *
 *                              |     A D F     |                              *
 *                              |               |                              *
 *                              =================                              *
 *                                                                             *
 *                                                                             *
 *   Online information and documentation:  https://www.scm.com/support/       *
 *   E-mail:  support@scm.com   info@scm.com                                   *
 *                                                                             *
 *   Scientific publications using ADF results must be properly referenced     *
 *   See the User Manuals (or the web site) for recommended citations          *
 *   The terms and conditions of the End User License Agreement apply to       *
 *   the use of ADF, https://www.scm.com/license-terms/                        *
 *                                                                             *
 **********************  x86_64_linux_intel / intelmpi  ************************
 
 Licensed to: Prof. Li Jun / Tsinghua University, Dept of Chemistry, Theoretical Chemistry  / Beijing / CHINA
 SCM User ID: u8558
  
 ADF 2019  RunTime: Jun25-2019 23:41:44  Nodes: 1  Procs: 2

 Temporary files are created in /tmp/tmp.lzu8m9Ikap/kid_0.1066186319


Communication costs MPI_COMM_WORLD:      0.653 usec per message,   0.0028 usec per 8-byte item
Communication costs for intra-node:      0.624 usec per message,   0.0028 usec per 8-byte item

 Ln



 ===========================
 A T T A C H E D   F I L E S
 ===========================
  



 ===============================
 M O D E L   P A R A M E T E R S
 ===============================
  
 DENSITY FUNCTIONAL POTENTIAL (scf)
    Hybrid:                            PBE0                                    == Not Default ==

 SPIN  (restricted / unrestr.)
    Molecule:                          UNrestricted                            == Not Default ==
    Fragments:                         Restricted                               

 OTHER ASPECTS
    Relativistic Corrections:          scalar (ZORA,MAPA)                      == Not Default ==

    Nuclear Charge Density Model:      Point Charge Nuclei                      
    Core Treatment:                    Frozen Orbital(s)                        

    Hyperfine or Zeeman Interaction:   ---                                      


 Fragment File(s)
 ----------------
 La:
         file : t21.La
         jobid: ADF 2019  RunTime: Jun25-2019 23:41:38  Nodes: 1  Procs: 1
         title: Lanthanum (TZP, all electron)



                                        ************************************
                                        *  R U N   T Y P E : SINGLE POINT  *
                                        ************************************
  



 ===============
 G E O M E T R Y  ***  Single Atom  ***
 ===============
  

 ATOMS
 =====                            X Y Z                    CHARGE
                                (Angstrom)             Nucl     +Core       At.Mass
                       --------------------------    ----------------       -------
    1  La              0.0000    0.0000    0.0000     57.00     57.00      138.9063


 FRAGMENTS
 =========                                     Atoms in this Fragment     Cart. coord.s (Angstrom)
                                               -------------------------------------------------------
    1  La                                                1  La           0.0000    0.0000    0.0000



 =====================================
 S Y M M E T R Y ,   E L E C T R O N S
 =====================================
  
 Symmetry: ATOM

 Irreducible Representations, including subspecies
 -------------------------------------------------
 S
 P:x  P:y  P:z
 D:z2  D:x2-y2  D:xy  D:xz  D:yz
 F:z3  F:z  F:xyz  F:z2x  F:z2y  F:x  F:y


 Configuration of Valence Electrons
 ==================================

          (Spin-A)                          (Spin-B)
          -------------------------------------------------
 S        5*1                               5*1
 P        4*3                               4*3
 D        2*5 1                             2*5
 F        0                                 0
          -------------------------------------------------

 Total:   28                                27

 Net Charge: 2 (Nuclei minus Electrons)
 Spin polar: 1 (Spin_A minus Spin_B electrons)

 Preset values for MO occupations will be applied through SCF cycle no. 1000000
 Thereafter, the program will assign electrons to MOs that are spatially
 similar to the occupied MOs in a "reference" cycle ("KeepOrbitals").
 The reference cycle is always the PREVIOUS cycle: it will evolve with
 the SCF procedure.
1
 ***************************************************************************************************



                                      ****************************************
                                      *  B U I L D : (Fragments, Functions)  *
                                      ****************************************
  



 =======
 S F O s  ***  (Symmetrized Fragment Orbitals)  ***
 =======
  
 SFOs are linear combinations of (valence) Fragment Orbitals (FOs), such that the SFOs transform as the
 irreducible representations of the (molecular) symmetry group. Each SFO is therefore characterized by
 an irrep of the molecule and by a few (or only one) generating FOs.
 The SFOs constitute a symmetry-adapted basis for the Fock matrix. The MO eigenvector coefficients in
 this basis provide a direct interpretation of the MOs in terms of Frontier Orbital Theory.

 The SFOs are combined with auxiliary Core Functions (CFs) to ensure orthogonalization on the (frozen)
 Core Orbitals (COs). The Core-orthogonalized SFOs (CSFOs) constitute the true Fock basis.

 The FOs, and hence also the (C)SFOs are combinations of the elementary basis functions (BAS). The basis
 functions that participate in the description of the SFOs depend on the irrep. The indices of the
 involved functions are printed below for each irrep.
 (The complete list of primitive basis functions is printed in another section)

 Total nr. of (C)SFOs (summation over all irreps) :   100

 NOTE: a (C)SFO that is defined as a combination of more than one FO is usually NOT normalized.



                                       === S ===
 Nr. of SFOs :   14
 Cartesian basis functions that participate in this irrep (total number =    14) :
      1     2     3     4     5     6     7     8     9    10
     11    12    13    14

    SFO  (index         Fragment          Generating    Expansion in Fragment Orbitals
  indx  incl.CFs)   Occup   Orb.Energy   FragmentType  Coeff.   Orbital     on Fragment
 --------------------------------------------------------------------------------------
     1       1      2.000   -1425.766 au  La            1.00      1 S               1
                        (  -38797.069 eV)
     2       2      2.000    -227.990 au  La            1.00      2 S               1
                        (   -6203.915 eV)
     3       3      2.000     -49.179 au  La            1.00      3 S               1
                        (   -1338.220 eV)
     4       4      2.000     -10.132 au  La            1.00      4 S               1
                        (    -275.697 eV)
     5       5      2.000      -1.545 au  La            1.00      5 S               1
                        (     -42.031 eV)
     6       6      2.000      -0.156 au  La            1.00      6 S               1
                        (      -4.235 eV)
     7       7       --         0.023 au  La            1.00      7 S               1
                        (       0.628 eV)
     8       8       --         0.270 au  La            1.00      8 S               1
                        (       7.351 eV)
     9       9       --         1.511 au  La            1.00      9 S               1
                        (      41.116 eV)
    10      10       --         9.625 au  La            1.00     10 S               1
                        (     261.899 eV)
    11      11       --        61.913 au  La            1.00     11 S               1
                        (    1684.736 eV)
    12      12       --       940.037 au  La            1.00     12 S               1
                        (   25579.696 eV)
    13      13       --      5872.171 au  La            1.00     13 S               1
                        (  159789.902 eV)
    14      14       --     25948.993 au  La            1.00     14 S               1
                        (  706108.039 eV)



                                       === P:x ===
 Nr. of SFOs :   10
 Cartesian basis functions that participate in this irrep (total number =    10) :
     15    18    21    24    27    30    33    36    39   114

    SFO  (index         Fragment          Generating    Expansion in Fragment Orbitals
  indx  incl.CFs)   Occup   Orb.Energy   FragmentType  Coeff.   Orbital     on Fragment
 --------------------------------------------------------------------------------------
     1       1      2.000    -204.277 au  La            1.00      1 P:x             1
                        (   -5558.652 eV)
     2       2      2.000     -41.604 au  La            1.00      2 P:x             1
                        (   -1132.104 eV)
     3       3      2.000      -7.638 au  La            1.00      3 P:x             1
                        (    -207.834 eV)
     4       4      2.000      -0.897 au  La            1.00      4 P:x             1
                        (     -24.420 eV)
     5       5       --        -0.027 au  La            1.00      5 P:x             1
                        (      -0.738 eV)
     6       6       --         0.599 au  La            1.00      6 P:x             1
                        (      16.294 eV)
     7       7       --         5.656 au  La            1.00      7 P:x             1
                        (     153.900 eV)
     8       8       --        39.303 au  La            1.00      8 P:x             1
                        (    1069.500 eV)
     9       9       --       373.446 au  La            1.00      9 P:x             1
                        (   10161.989 eV)
    10      10       --      3752.576 au  La            1.00     10 P:x             1
                        (  102112.800 eV)



                                       === P:y ===
 Nr. of SFOs :   10
 Cartesian basis functions that participate in this irrep (total number =    10) :
     16    19    22    25    28    31    34    37    40   115

    SFO  (index         Fragment          Generating    Expansion in Fragment Orbitals
  indx  incl.CFs)   Occup   Orb.Energy   FragmentType  Coeff.   Orbital     on Fragment
 --------------------------------------------------------------------------------------
     1       1      2.000    -204.277 au  La            1.00      1 P:y             1
                        (   -5558.652 eV)
     2       2      2.000     -41.604 au  La            1.00      2 P:y             1
                        (   -1132.104 eV)
     3       3      2.000      -7.638 au  La            1.00      3 P:y             1
                        (    -207.834 eV)
     4       4      2.000      -0.897 au  La            1.00      4 P:y             1
                        (     -24.420 eV)
     5       5       --        -0.027 au  La            1.00      5 P:y             1
                        (      -0.738 eV)
     6       6       --         0.599 au  La            1.00      6 P:y             1
                        (      16.294 eV)
     7       7       --         5.656 au  La            1.00      7 P:y             1
                        (     153.900 eV)
     8       8       --        39.303 au  La            1.00      8 P:y             1
                        (    1069.500 eV)
     9       9       --       373.446 au  La            1.00      9 P:y             1
                        (   10161.989 eV)
    10      10       --      3752.576 au  La            1.00     10 P:y             1
                        (  102112.800 eV)



                                       === P:z ===
 Nr. of SFOs :   10
 Cartesian basis functions that participate in this irrep (total number =    10) :
     17    20    23    26    29    32    35    38    41   116

    SFO  (index         Fragment          Generating    Expansion in Fragment Orbitals
  indx  incl.CFs)   Occup   Orb.Energy   FragmentType  Coeff.   Orbital     on Fragment
 --------------------------------------------------------------------------------------
     1       1      2.000    -204.277 au  La            1.00      1 P:z             1
                        (   -5558.652 eV)
     2       2      2.000     -41.604 au  La            1.00      2 P:z             1
                        (   -1132.104 eV)
     3       3      2.000      -7.638 au  La            1.00      3 P:z             1
                        (    -207.834 eV)
     4       4      2.000      -0.897 au  La            1.00      4 P:z             1
                        (     -24.420 eV)
     5       5       --        -0.027 au  La            1.00      5 P:z             1
                        (      -0.738 eV)
     6       6       --         0.599 au  La            1.00      6 P:z             1
                        (      16.294 eV)
     7       7       --         5.656 au  La            1.00      7 P:z             1
                        (     153.900 eV)
     8       8       --        39.303 au  La            1.00      8 P:z             1
                        (    1069.500 eV)
     9       9       --       373.446 au  La            1.00      9 P:z             1
                        (   10161.989 eV)
    10      10       --      3752.576 au  La            1.00     10 P:z             1
                        (  102112.800 eV)



                                       === D:z2 ===
 Nr. of SFOs :    7
 Cartesian basis functions that participate in this irrep (total number =    21) :
     42    45    47    48    51    53    54    57    59    60
     63    65    66    69    71    72    75    77    78    81
     83

    SFO  (index         Fragment          Generating    Expansion in Fragment Orbitals
  indx  incl.CFs)   Occup   Orb.Energy   FragmentType  Coeff.   Orbital     on Fragment
 --------------------------------------------------------------------------------------
     1       1      2.000     -30.649 au  La            1.00      1 D:z2            1
                        (    -834.010 eV)
     2       2      2.000      -3.982 au  La            1.00      2 D:z2            1
                        (    -108.355 eV)
     3       3      0.200      -0.088 au  La            1.00      3 D:z2            1
                        (      -2.405 eV)
     4       4       --         0.086 au  La            1.00      4 D:z2            1
                        (       2.337 eV)
     5       5       --         0.642 au  La            1.00      5 D:z2            1
                        (      17.469 eV)
     6       6       --         4.798 au  La            1.00      6 D:z2            1
                        (     130.571 eV)
     7       7       --        48.348 au  La            1.00      7 D:z2            1
                        (    1315.629 eV)



                                       === D:x2-y2 ===
 Nr. of SFOs :    7
 Cartesian basis functions that participate in this irrep (total number =    14) :
     42    45    48    51    54    57    60    63    66    69
     72    75    78    81

    SFO  (index         Fragment          Generating    Expansion in Fragment Orbitals
  indx  incl.CFs)   Occup   Orb.Energy   FragmentType  Coeff.   Orbital     on Fragment
 --------------------------------------------------------------------------------------
     1       1      2.000     -30.649 au  La            1.00      1 D:x2-y2         1
                        (    -834.010 eV)
     2       2      2.000      -3.982 au  La            1.00      2 D:x2-y2         1
                        (    -108.355 eV)
     3       3      0.200      -0.088 au  La            1.00      3 D:x2-y2         1
                        (      -2.405 eV)
     4       4       --         0.086 au  La            1.00      4 D:x2-y2         1
                        (       2.337 eV)
     5       5       --         0.642 au  La            1.00      5 D:x2-y2         1
                        (      17.469 eV)
     6       6       --         4.798 au  La            1.00      6 D:x2-y2         1
                        (     130.571 eV)
     7       7       --        48.348 au  La            1.00      7 D:x2-y2         1
                        (    1315.629 eV)



                                       === D:xy ===
 Nr. of SFOs :    7
 Cartesian basis functions that participate in this irrep (total number =     7) :
     43    49    55    61    67    73    79

    SFO  (index         Fragment          Generating    Expansion in Fragment Orbitals
  indx  incl.CFs)   Occup   Orb.Energy   FragmentType  Coeff.   Orbital     on Fragment
 --------------------------------------------------------------------------------------
     1       1      2.000     -30.649 au  La            1.00      1 D:xy            1
                        (    -834.010 eV)
     2       2      2.000      -3.982 au  La            1.00      2 D:xy            1
                        (    -108.355 eV)
     3       3      0.200      -0.088 au  La            1.00      3 D:xy            1
                        (      -2.405 eV)
     4       4       --         0.086 au  La            1.00      4 D:xy            1
                        (       2.337 eV)
     5       5       --         0.642 au  La            1.00      5 D:xy            1
                        (      17.469 eV)
     6       6       --         4.798 au  La            1.00      6 D:xy            1
                        (     130.571 eV)
     7       7       --        48.348 au  La            1.00      7 D:xy            1
                        (    1315.629 eV)



                                       === D:xz ===
 Nr. of SFOs :    7
 Cartesian basis functions that participate in this irrep (total number =     7) :
     44    50    56    62    68    74    80

    SFO  (index         Fragment          Generating    Expansion in Fragment Orbitals
  indx  incl.CFs)   Occup   Orb.Energy   FragmentType  Coeff.   Orbital     on Fragment
 --------------------------------------------------------------------------------------
     1       1      2.000     -30.649 au  La            1.00      1 D:xz            1
                        (    -834.010 eV)
     2       2      2.000      -3.982 au  La            1.00      2 D:xz            1
                        (    -108.355 eV)
     3       3      0.200      -0.088 au  La            1.00      3 D:xz            1
                        (      -2.405 eV)
     4       4       --         0.086 au  La            1.00      4 D:xz            1
                        (       2.337 eV)
     5       5       --         0.642 au  La            1.00      5 D:xz            1
                        (      17.469 eV)
     6       6       --         4.798 au  La            1.00      6 D:xz            1
                        (     130.571 eV)
     7       7       --        48.348 au  La            1.00      7 D:xz            1
                        (    1315.629 eV)



                                       === D:yz ===
 Nr. of SFOs :    7
 Cartesian basis functions that participate in this irrep (total number =     7) :
     46    52    58    64    70    76    82

    SFO  (index         Fragment          Generating    Expansion in Fragment Orbitals
  indx  incl.CFs)   Occup   Orb.Energy   FragmentType  Coeff.   Orbital     on Fragment
 --------------------------------------------------------------------------------------
     1       1      2.000     -30.649 au  La            1.00      1 D:yz            1
                        (    -834.010 eV)
     2       2      2.000      -3.982 au  La            1.00      2 D:yz            1
                        (    -108.355 eV)
     3       3      0.200      -0.088 au  La            1.00      3 D:yz            1
                        (      -2.405 eV)
     4       4       --         0.086 au  La            1.00      4 D:yz            1
                        (       2.337 eV)
     5       5       --         0.642 au  La            1.00      5 D:yz            1
                        (      17.469 eV)
     6       6       --         4.798 au  La            1.00      6 D:yz            1
                        (     130.571 eV)
     7       7       --        48.348 au  La            1.00      7 D:yz            1
                        (    1315.629 eV)



                                       === F:z3 ===
 Nr. of SFOs :    3
 Cartesian basis functions that participate in this irrep (total number =     9) :
     86    91    93    96   101   103   106   111   113

    SFO  (index         Fragment          Generating    Expansion in Fragment Orbitals
  indx  incl.CFs)   Occup   Orb.Energy   FragmentType  Coeff.   Orbital     on Fragment
 --------------------------------------------------------------------------------------
     1       1       --        -0.045 au  La            1.00      1 F:z3            1
                        (      -1.222 eV)
     2       2       --         0.558 au  La            1.00      2 F:z3            1
                        (      15.174 eV)
     3       3       --         4.622 au  La            1.00      3 F:z3            1
                        (     125.764 eV)



                                       === F:z ===
 Nr. of SFOs :    3
 Cartesian basis functions that participate in this irrep (total number =     6) :
     86    91    96   101   106   111

    SFO  (index         Fragment          Generating    Expansion in Fragment Orbitals
  indx  incl.CFs)   Occup   Orb.Energy   FragmentType  Coeff.   Orbital     on Fragment
 --------------------------------------------------------------------------------------
     1       1       --        -0.045 au  La            1.00      1 F:z             1
                        (      -1.222 eV)
     2       2       --         0.558 au  La            1.00      2 F:z             1
                        (      15.174 eV)
     3       3       --         4.622 au  La            1.00      3 F:z             1
                        (     125.764 eV)



                                       === F:xyz ===
 Nr. of SFOs :    3
 Cartesian basis functions that participate in this irrep (total number =     3) :
     88    98   108

    SFO  (index         Fragment          Generating    Expansion in Fragment Orbitals
  indx  incl.CFs)   Occup   Orb.Energy   FragmentType  Coeff.   Orbital     on Fragment
 --------------------------------------------------------------------------------------
     1       1       --        -0.045 au  La            1.00      1 F:xyz           1
                        (      -1.222 eV)
     2       2       --         0.558 au  La            1.00      2 F:xyz           1
                        (      15.174 eV)
     3       3       --         4.622 au  La            1.00      3 F:xyz           1
                        (     125.764 eV)



                                       === F:z2x ===
 Nr. of SFOs :    3
 Cartesian basis functions that participate in this irrep (total number =     9) :
     84    87    89    94    97    99   104   107   109

    SFO  (index         Fragment          Generating    Expansion in Fragment Orbitals
  indx  incl.CFs)   Occup   Orb.Energy   FragmentType  Coeff.   Orbital     on Fragment
 --------------------------------------------------------------------------------------
     1       1       --        -0.045 au  La            1.00      1 F:z2x           1
                        (      -1.222 eV)
     2       2       --         0.558 au  La            1.00      2 F:z2x           1
                        (      15.174 eV)
     3       3       --         4.622 au  La            1.00      3 F:z2x           1
                        (     125.764 eV)



                                       === F:z2y ===
 Nr. of SFOs :    3
 Cartesian basis functions that participate in this irrep (total number =     9) :
     85    90    92    95   100   102   105   110   112

    SFO  (index         Fragment          Generating    Expansion in Fragment Orbitals
  indx  incl.CFs)   Occup   Orb.Energy   FragmentType  Coeff.   Orbital     on Fragment
 --------------------------------------------------------------------------------------
     1       1       --        -0.045 au  La            1.00      1 F:z2y           1
                        (      -1.222 eV)
     2       2       --         0.558 au  La            1.00      2 F:z2y           1
                        (      15.174 eV)
     3       3       --         4.622 au  La            1.00      3 F:z2y           1
                        (     125.764 eV)



                                       === F:x ===
 Nr. of SFOs :    3
 Cartesian basis functions that participate in this irrep (total number =     6) :
     84    87    94    97   104   107

    SFO  (index         Fragment          Generating    Expansion in Fragment Orbitals
  indx  incl.CFs)   Occup   Orb.Energy   FragmentType  Coeff.   Orbital     on Fragment
 --------------------------------------------------------------------------------------
     1       1       --        -0.045 au  La            1.00      1 F:x             1
                        (      -1.222 eV)
     2       2       --         0.558 au  La            1.00      2 F:x             1
                        (      15.174 eV)
     3       3       --         4.622 au  La            1.00      3 F:x             1
                        (     125.764 eV)



                                       === F:y ===
 Nr. of SFOs :    3
 Cartesian basis functions that participate in this irrep (total number =     6) :
     85    90    95   100   105   110

    SFO  (index         Fragment          Generating    Expansion in Fragment Orbitals
  indx  incl.CFs)   Occup   Orb.Energy   FragmentType  Coeff.   Orbital     on Fragment
 --------------------------------------------------------------------------------------
     1       1       --        -0.045 au  La            1.00      1 F:y             1
                        (      -1.222 eV)
     2       2       --         0.558 au  La            1.00      2 F:y             1
                        (      15.174 eV)
     3       3       --         4.622 au  La            1.00      3 F:y             1
                        (     125.764 eV)



 ================================
 (Slater-type)  F U N C T I O N S  ***  (Basis and Fit)  ***
 ================================
  

 Atom Type    1  (La)
 ==============

 Valence Basis Sets:  34
 -----------------------
   1 S  439.000000
   1 S  109.400000
   1 S   58.700000
   2 S   66.000000
   2 S   25.350000
   3 S   13.500000
   3 S   10.500000
   4 S   10.200000
   4 S    6.450000
   5 S    4.200000
   5 S    2.750000
   6 S    1.950000
   6 S    1.250000
   6 S    0.820000
   2 P  109.400000
   2 P   39.100000
   2 P   24.400000
   3 P   14.300000
   3 P   10.900000
   4 P    8.050000
   4 P    5.500000
   5 P    3.550000
   5 P    2.200000
   3 D   18.500000
   3 D   11.200000
   4 D    7.350000
   4 D    4.500000
   5 D    2.850000
   5 D    1.600000
   5 D    0.910000
   4 F    7.800000
   4 F    3.600000
   4 F    1.550000
   6 P    1.250000

 Charge Fitting Sets (for the computation of the Coulomb Potential):  73
 -----------------------------------------------------------------------
   1 S  878.000000
   1 S  658.661000
   1 S  494.117000
   1 S  370.679000
   1 S  278.077000
   1 S  208.609000
   1 S  156.495000
   1 S  117.400000
   1 S   70.110000
   2 S   77.540000
   2 S   52.060000
   3 S   51.320000
   3 S   36.660000
   4 S   34.620000
   4 S   25.740000
   5 S   23.830000
   5 S   18.230000
   6 S   16.700000
   6 S   13.050000
   7 S   11.900000
   7 S    9.460000
   8 S    8.590000
   8 S    6.930000
   9 S    6.280000
   9 S    5.130000
  10 S    4.650000
  10 S    3.830000
  10 S    3.150000
  11 S    2.860000
  11 S    2.380000
  11 S    1.970000
  11 S    1.640000
   2 P   83.100000
   3 P   68.430000
   4 P   55.420000
   5 P   44.750000
   5 P   30.050000
   6 P   24.320000
   6 P   16.860000
   7 P   13.700000
   7 P    9.740000
   8 P    7.950000
   8 P    5.770000
   9 P    4.730000
   9 P    3.500000
  10 P    2.880000
  10 P    2.160000
   3 D   69.900000
   4 D   50.010000
   5 D   36.150000
   6 D   26.450000
   7 D   19.570000
   7 D   12.720000
   8 D    9.510000
   8 D    6.340000
   9 D    4.790000
   9 D    3.270000
  10 D    2.490000
  10 D    1.730000
   4 F   62.300000
   5 F   38.070000
   6 F   23.890000
   7 F   15.340000
   8 F   10.050000
   8 F    5.890000
   9 F    3.930000
   9 F    2.370000
   5 G   28.000000
   6 G   15.720000
   7 G    9.100000
   8 G    5.410000
   9 G    3.300000
   9 G    1.820000


 BAS: List of all Elementary Cartesian Basis Functions
 =====================================================

 The numbering in the list below (to the right of the function characteristics) is referred
 to in print-outs of MO eigenvectors and Mulliken populations in the BAS representation
 (as contrasted to the SFO representation).

 Notes:
 1. The functions are characterized by a polynomial prefactor (powers of x,y,z and r) and
    an exponential decay factor alpha.
 2. Since the basis sets are specific for an atom TYPE, the individual functions occur on
    all atoms of that type.
 3. The word 'Core' in the left margin signals that it is a Core Function (CF) : not a
    degree of freedom in the valence set, but only used to ensure orthogonalization of
    the other valence basis functions on the frozen Core Orbitals.


 (power of) X  Y  Z  R     Alpha  on Atom
            ==========     =====     ==========

 La                                   1
                                  ---------------------------------------------------------------------------
            0  0  0  0   439.000      1
            0  0  0  0   109.400      2
            0  0  0  0    58.700      3
            0  0  0  1    66.000      4
            0  0  0  1    25.350      5
            0  0  0  2    13.500      6
            0  0  0  2    10.500      7
            0  0  0  3    10.200      8
            0  0  0  3     6.450      9
            0  0  0  4     4.200     10
            0  0  0  4     2.750     11
            0  0  0  5     1.950     12
            0  0  0  5     1.250     13
            0  0  0  5     0.820     14
            1  0  0  0   109.400     15
            0  1  0  0   109.400     16
            0  0  1  0   109.400     17
            1  0  0  0    39.100     18
            0  1  0  0    39.100     19
            0  0  1  0    39.100     20
            1  0  0  0    24.400     21
            0  1  0  0    24.400     22
            0  0  1  0    24.400     23
            1  0  0  1    14.300     24
            0  1  0  1    14.300     25
            0  0  1  1    14.300     26
            1  0  0  1    10.900     27
            0  1  0  1    10.900     28
            0  0  1  1    10.900     29
            1  0  0  2     8.050     30
            0  1  0  2     8.050     31
            0  0  1  2     8.050     32
            1  0  0  2     5.500     33
            0  1  0  2     5.500     34
            0  0  1  2     5.500     35
            1  0  0  3     3.550     36
            0  1  0  3     3.550     37
            0  0  1  3     3.550     38
            1  0  0  3     2.200     39
            0  1  0  3     2.200     40
            0  0  1  3     2.200     41
            2  0  0  0    18.500     42
            1  1  0  0    18.500     43
            1  0  1  0    18.500     44
            0  2  0  0    18.500     45
            0  1  1  0    18.500     46
            0  0  2  0    18.500     47
            2  0  0  0    11.200     48
            1  1  0  0    11.200     49
            1  0  1  0    11.200     50
            0  2  0  0    11.200     51
            0  1  1  0    11.200     52
            0  0  2  0    11.200     53
            2  0  0  1     7.350     54
            1  1  0  1     7.350     55
            1  0  1  1     7.350     56
            0  2  0  1     7.350     57
            0  1  1  1     7.350     58
            0  0  2  1     7.350     59
            2  0  0  1     4.500     60
            1  1  0  1     4.500     61
            1  0  1  1     4.500     62
            0  2  0  1     4.500     63
            0  1  1  1     4.500     64
            0  0  2  1     4.500     65
            2  0  0  2     2.850     66
            1  1  0  2     2.850     67
            1  0  1  2     2.850     68
            0  2  0  2     2.850     69
            0  1  1  2     2.850     70
            0  0  2  2     2.850     71
            2  0  0  2     1.600     72
            1  1  0  2     1.600     73
            1  0  1  2     1.600     74
            0  2  0  2     1.600     75
            0  1  1  2     1.600     76
            0  0  2  2     1.600     77
            2  0  0  2     0.910     78
            1  1  0  2     0.910     79
            1  0  1  2     0.910     80
            0  2  0  2     0.910     81
            0  1  1  2     0.910     82
            0  0  2  2     0.910     83
            3  0  0  0     7.800     84
            2  1  0  0     7.800     85
            2  0  1  0     7.800     86
            1  2  0  0     7.800     87
            1  1  1  0     7.800     88
            1  0  2  0     7.800     89
            0  3  0  0     7.800     90
            0  2  1  0     7.800     91
            0  1  2  0     7.800     92
            0  0  3  0     7.800     93
            3  0  0  0     3.600     94
            2  1  0  0     3.600     95
            2  0  1  0     3.600     96
            1  2  0  0     3.600     97
            1  1  1  0     3.600     98
            1  0  2  0     3.600     99
            0  3  0  0     3.600    100
            0  2  1  0     3.600    101
            0  1  2  0     3.600    102
            0  0  3  0     3.600    103
            3  0  0  0     1.550    104
            2  1  0  0     1.550    105
            2  0  1  0     1.550    106
            1  2  0  0     1.550    107
            1  1  1  0     1.550    108
            1  0  2  0     1.550    109
            0  3  0  0     1.550    110
            0  2  1  0     1.550    111
            0  1  2  0     1.550    112
            0  0  3  0     1.550    113
            1  0  0  4     1.250    114
            0  1  0  4     1.250    115
            0  0  1  4     1.250    116

 Total number of charge fitting functions (nprimf)       319
 Total number of Cartesian basis functions (naos)        116
 Total number of Cartesian core functions  (ncos)          0

1
 ***************************************************************************************************



                                              ***********************
                                              *  T E C H N I C A L  *
                                              ***********************
  



 =============================================================
 P A R A L L E L I Z A T I O N  and  V E C T O R I Z A T I O N
 =============================================================
  
 Nr of parallel processes:                                2
 Maximum vector length in NumInt loops:                 128



 =====================
 S C F   U P D A T E S
 =====================
  
 Max. nr. of cycles:                               300
 Convergence criterion:                              0.0000010000
   secondary criterion:                              0.0010000000

 Mix parameter (when DIIS does not apply):           0.0200000000
 Mixed ADIIS+SDIIS will be used                  
    Max number of expansion vectors:                10
    Pure ADIIS when Max([F,P]) is above              0.1000000000
    Pure SDIIS when Max([F,P]) is below              0.0010000000
 Automatic ElectronSmearing (in case of problematic SCF convergence) disabled



 =================
 P R E C I S I O N  ***  (General: NumInt, NeglectFunctionTails, ...)  ***
 =================
  

 NumInt:           Target precision:                 6.0000000000
 -------           Initial precision:                6.0000000000
                   Min. precision (optimization):    6.0000000000

 Neglect Functions:          Basis functions:        0.1000000000E-07
 ------------------          Fit functions:          0.1000000000E-07



 ===========================
 L I N E A R   S C A L I N G
 ===========================
  

 Cut-off radii density fit:                        0.1000000000E-09
 Overlap cut-off criterion AO matrix elements:     0.1000000000E-07
 Cut-offs for Coulomb potential and fitted density:0.1000000000E-09
 Cut-off criterion for Coulomb multipole terms:    0.1000000000E-09
 Progressive Convergence parameter:                 0.000000000    
1
 ***************************************************************************************************



                                            ***************************
                                            *  C O M P U T A T I O N  *
                                            ***************************
  

 Number of elements of the density matrix on this node (used, total):      6786      6786



 ===========================================
 Numerical Integration : Fuzzy Cells (Becke)
 ===========================================
  
 Becke grid quality: GOOD           
  
 Lebedev angular grid order:             min:  11 max:  31
 Nr. of radial points:                   min: 189 max: 189

 Total nr. of points:        189
 Nr. of blocks:                2
 Block length:                95
 Nr. of dummy points:          1


 Test of Precision of the Numerical Integration Grid
 ===================================================

 Integral of the Total Core Density:                   0.00000000000000



 ========================
 Density Fitting (zlmFit)
 ========================
  
 ZlmFit Fit Quality: NORMAL         
  
 Max L-expansion:                        min:   7 max:   7
 Nr. of radial interpolation points:     min: 120 max: 120



 ======================
 RI Hartree-Fock Scheme
 ======================
  
 Fit Set Quality     : NORMAL
 Integration Quality : NORMAL
 Threshold Quality   : NORMAL
 Response Quality    : DEFAULT
 Is Range Separated  :  F
 
 RIHartreeFock Dependency: number of modified vectors:           0



 =====
 S C F  ***  ScaSCF  ***
 =====
  
 Initial density matrix is calculated as sum of fragments

 CYCLE    1
 SCF Error: norm([F,P])=      0.013026091055, max([F,P])=      0.001799054302
 ***** SPIN 1 *****
 orbitals (Q,E):
 ---------------
 S :1...14           ( 1.00 -1425.7795)  ( 1.00  -227.9965)  ( 1.00   -49.1822)  ( 1.00   -10.1335)
                     ( 1.00    -1.5454)  ( 0.00    -0.1559)  ( 0.00     0.0229)  ( 0.00     0.2699)
                     ( 0.00     1.5104)  ( 0.00     9.6232)  ( 0.00    61.9092)  ( 0.00   940.0275)
                     ( 0.00  5872.1599)  ( 0.00 25948.9878)
 P :1...10           ( 3.00  -204.2843)  ( 3.00   -41.6077)  ( 3.00    -7.6395)  ( 3.00    -0.8981)
                     ( 0.00    -0.0273)  ( 0.00     0.5983)  ( 0.00     5.6544)  ( 0.00    39.3001)
                     ( 0.00   373.4383)  ( 0.00  3752.5652)
 D :1...7            ( 5.00   -30.6530)  ( 5.00    -3.9836)  ( 1.00    -0.0888)  ( 0.00     0.0857)
                     ( 0.00     0.6415)  ( 0.00     4.7971)  ( 0.00    48.3446)
 F :1...3            ( 0.00    -0.0460)  ( 0.00     0.5571)  ( 0.00     4.6202)
 ***** SPIN 2 *****
 orbitals (Q,E):
 ---------------
 S :1...14           ( 1.00 -1425.7795)  ( 1.00  -227.9965)  ( 1.00   -49.1822)  ( 1.00   -10.1335)
                     ( 1.00    -1.5454)  ( 0.00    -0.1559)  ( 0.00     0.0229)  ( 0.00     0.2699)
                     ( 0.00     1.5104)  ( 0.00     9.6232)  ( 0.00    61.9092)  ( 0.00   940.0275)
                     ( 0.00  5872.1599)  ( 0.00 25948.9878)
 P :1...10           ( 3.00  -204.2843)  ( 3.00   -41.6077)  ( 3.00    -7.6395)  ( 3.00    -0.8981)
                     ( 0.00    -0.0273)  ( 0.00     0.5983)  ( 0.00     5.6544)  ( 0.00    39.3001)
                     ( 0.00   373.4383)  ( 0.00  3752.5652)
 D :1...7            ( 5.00   -30.6530)  ( 5.00    -3.9836)  ( 0.00    -0.0888)  ( 0.00     0.0857)
                     ( 0.00     0.6415)  ( 0.00     4.7971)  ( 0.00    48.3446)
 F :1...3            ( 0.00    -0.0460)  ( 0.00     0.5571)  ( 0.00     4.6202)
  
 Spin polar: 1 (Spin_A minus Spin_B electrons)

 CYCLE    2
   MIX coefficients:  0.9800  0.0200
 SCF Error: norm([F,P])=      0.118118236975, max([F,P])=      0.021755852521
 ***** SPIN 1 *****
 orbitals (Q,E):
 ---------------
 S :1...6            ( 1.00 -1425.7901)  ( 1.00  -228.0075)  ( 1.00   -49.1931)  ( 1.00   -10.1442)
                     ( 1.00    -1.5557)  ( 0.00    -0.1624)
 P :1...5            ( 3.00  -204.2952)  ( 3.00   -41.6186)  ( 3.00    -7.6502)  ( 3.00    -0.9084)
                     ( 0.00    -0.0339)
 D :1...4            ( 5.00   -30.6639)  ( 5.00    -3.9942)  ( 1.00    -0.0978)  ( 0.00     0.0795)
 F :1...1            ( 0.00    -0.0564)
 ***** SPIN 2 *****
 orbitals (Q,E):
 ---------------
 S :1...6            ( 1.00 -1425.7901)  ( 1.00  -228.0074)  ( 1.00   -49.1931)  ( 1.00   -10.1442)
                     ( 1.00    -1.5554)  ( 0.00    -0.1619)
 P :1...5            ( 3.00  -204.2952)  ( 3.00   -41.6186)  ( 3.00    -7.6502)  ( 3.00    -0.9080)
                     ( 0.00    -0.0334)
 D :1...3            ( 5.00   -30.6639)  ( 5.00    -3.9942)  ( 0.00    -0.0971)
 F :1...1            ( 0.00    -0.0562)
  
 Spin polar: 1 (Spin_A minus Spin_B electrons)

 CYCLE    3
  SDIIS (wt  0.000): -2.0000  3.0000
 A-DIIS (wt  1.000):  0.0000  1.0000
  DIIS coefficients:  0.0000  1.0000
 SCF Error: norm([F,P])=      0.113075784849, max([F,P])=      0.020899722391
 ***** SPIN 1 *****
 orbitals (Q,E):
 ---------------
 S :1...6            ( 1.00 -1426.3048)  ( 1.00  -228.5380)  ( 1.00   -49.7224)  ( 1.00   -10.6662)
                     ( 1.00    -2.0582)  ( 0.00    -0.4944)
 P :1...5            ( 3.00  -204.8264)  ( 3.00   -42.1483)  ( 3.00    -8.1717)  ( 3.00    -1.4075)
                     ( 0.00    -0.3615)
 D :1...4            ( 5.00   -31.1945)  ( 5.00    -4.5140)  ( 1.00    -0.5572)  ( 0.00    -0.2125)
 F :1...1            ( 0.00    -0.5639)
 ***** SPIN 2 *****
 orbitals (Q,E):
 ---------------
 S :1...6            ( 1.00 -1426.3048)  ( 1.00  -228.5369)  ( 1.00   -49.7219)  ( 1.00   -10.6642)
                     ( 1.00    -2.0448)  ( 0.00    -0.4711)
 P :1...5            ( 3.00  -204.8255)  ( 3.00   -42.1477)  ( 3.00    -8.1698)  ( 3.00    -1.3881)
                     ( 0.00    -0.3350)
 D :1...3            ( 5.00   -31.1935)  ( 5.00    -4.5119)  ( 0.00    -0.5213)
 F :1...1            ( 0.00    -0.5571)
  
 Spin polar: 1 (Spin_A minus Spin_B electrons)

 CYCLE    4
  SDIIS (wt  0.847): -2.0000  2.5555  0.4445
 A-DIIS (wt  0.153):  0.0000  0.0000  1.0000
  DIIS coefficients: -1.6933  2.1636  0.5297
 SCF Error: norm([F,P])=      0.114898071159, max([F,P])=      0.016183391452
 ***** SPIN 1 *****
 orbitals (Q,E):
 ---------------
 S :1...6            ( 1.00 -1426.2197)  ( 1.00  -228.4542)  ( 1.00   -49.6466)  ( 1.00   -10.6031)
                     ( 1.00    -2.0198)  ( 0.00    -0.4805)
 P :1...5            ( 3.00  -204.7419)  ( 3.00   -42.0723)  ( 3.00    -8.1097)  ( 3.00    -1.3741)
                     ( 0.00    -0.3506)
 D :1...4            ( 5.00   -31.1176)  ( 5.00    -4.4541)  ( 1.00    -0.5354)  ( 0.00    -0.2024)
 F :1...1            ( 0.00    -0.5154)
 ***** SPIN 2 *****
 orbitals (Q,E):
 ---------------
 S :1...6            ( 1.00 -1426.2198)  ( 1.00  -228.4528)  ( 1.00   -49.6460)  ( 1.00   -10.6009)
                     ( 1.00    -2.0044)  ( 0.00    -0.4569)
 P :1...5            ( 3.00  -204.7407)  ( 3.00   -42.0717)  ( 3.00    -8.1076)  ( 3.00    -1.3519)
                     ( 0.00    -0.3248)
 D :1...3            ( 5.00   -31.1163)  ( 5.00    -4.4516)  ( 0.00    -0.4964)
 F :1...1            ( 0.00    -0.5074)
  
 Spin polar: 1 (Spin_A minus Spin_B electrons)

 CYCLE    5
  SDIIS (wt  0.984): -2.0000  2.1761  0.1021  0.7219
 A-DIIS (wt  0.016):  0.0000  0.0000  0.0000  1.0000
  DIIS coefficients: -1.9688  2.1421  0.1005  0.7262
 SCF Error: norm([F,P])=      0.021196729943, max([F,P])=      0.002546816016
 ***** SPIN 1 *****
 orbitals (Q,E):
 ---------------
 S :1...6            ( 1.00 -1426.2213)  ( 1.00  -228.4539)  ( 1.00   -49.6425)  ( 1.00   -10.5950)
                     ( 1.00    -2.0103)  ( 0.00    -0.4759)
 P :1...5            ( 3.00  -204.7419)  ( 3.00   -42.0684)  ( 3.00    -8.1014)  ( 3.00    -1.3655)
                     ( 0.00    -0.3467)
 D :1...4            ( 5.00   -31.1141)  ( 5.00    -4.4454)  ( 1.00    -0.5293)  ( 0.00    -0.1984)
 F :1...1            ( 0.00    -0.5064)
 ***** SPIN 2 *****
 orbitals (Q,E):
 ---------------
 S :1...6            ( 1.00 -1426.2214)  ( 1.00  -228.4524)  ( 1.00   -49.6420)  ( 1.00   -10.5928)
                     ( 1.00    -1.9944)  ( 0.00    -0.4519)
 P :1...5            ( 3.00  -204.7407)  ( 3.00   -42.0677)  ( 3.00    -8.0993)  ( 3.00    -1.3423)
                     ( 0.00    -0.3204)
 D :1...3            ( 5.00   -31.1128)  ( 5.00    -4.4429)  ( 0.00    -0.4889)
 F :1...1            ( 0.00    -0.4981)
  
 Spin polar: 1 (Spin_A minus Spin_B electrons)

 CYCLE    6
  SDIIS (wt  1.000):  0.6783 -0.6994  0.0100  0.0180  0.9930
  DIIS coefficients:  0.6783 -0.6994  0.0100  0.0180  0.9930
 SCF Error: norm([F,P])=      0.002361418909, max([F,P])=      0.000386306384
 ***** SPIN 1 *****
 orbitals (Q,E):
 ---------------
 S :1...6            ( 1.00 -1426.2201)  ( 1.00  -228.4528)  ( 1.00   -49.6420)  ( 1.00   -10.5946)
                     ( 1.00    -2.0092)  ( 0.00    -0.4752)
 P :1...5            ( 3.00  -204.7408)  ( 3.00   -42.0678)  ( 3.00    -8.1009)  ( 3.00    -1.3646)
                     ( 0.00    -0.3458)
 D :1...4            ( 5.00   -31.1135)  ( 5.00    -4.4449)  ( 1.00    -0.5286)  ( 0.00    -0.1971)
 F :1...1            ( 0.00    -0.5057)
 ***** SPIN 2 *****
 orbitals (Q,E):
 ---------------
 S :1...6            ( 1.00 -1426.2203)  ( 1.00  -228.4514)  ( 1.00   -49.6414)  ( 1.00   -10.5925)
                     ( 1.00    -1.9934)  ( 0.00    -0.4509)
 P :1...5            ( 3.00  -204.7396)  ( 3.00   -42.0672)  ( 3.00    -8.0989)  ( 3.00    -1.3412)
                     ( 0.00    -0.3181)
 D :1...3            ( 5.00   -31.1121)  ( 5.00    -4.4425)  ( 0.00    -0.4879)
 F :1...1            ( 0.00    -0.4974)
  
 Spin polar: 1 (Spin_A minus Spin_B electrons)

 CYCLE    7
  SDIIS (wt  1.000):  0.0707 -0.0732 -0.0020  0.0029  0.0166  0.9850
  DIIS coefficients:  0.0707 -0.0732 -0.0020  0.0029  0.0166  0.9850
 SCF Error: norm([F,P])=      0.000515114643, max([F,P])=      0.000078963450
 ***** SPIN 1 *****
 orbitals (Q,E):
 ---------------
 S :1...6            ( 1.00 -1426.2199)  ( 1.00  -228.4525)  ( 1.00   -49.6417)  ( 1.00   -10.5944)
                     ( 1.00    -2.0090)  ( 0.00    -0.4751)
 P :1...5            ( 3.00  -204.7405)  ( 3.00   -42.0675)  ( 3.00    -8.1007)  ( 3.00    -1.3645)
                     ( 0.00    -0.3457)
 D :1...4            ( 5.00   -31.1132)  ( 5.00    -4.4447)  ( 1.00    -0.5285)  ( 0.00    -0.1971)
 F :1...1            ( 0.00    -0.5055)
 ***** SPIN 2 *****
 orbitals (Q,E):
 ---------------
 S :1...6            ( 1.00 -1426.2201)  ( 1.00  -228.4511)  ( 1.00   -49.6411)  ( 1.00   -10.5923)
                     ( 1.00    -1.9932)  ( 0.00    -0.4507)
 P :1...5            ( 3.00  -204.7393)  ( 3.00   -42.0669)  ( 3.00    -8.0987)  ( 3.00    -1.3411)
                     ( 0.00    -0.3177)
 D :1...3            ( 5.00   -31.1118)  ( 5.00    -4.4423)  ( 0.00    -0.4877)
 F :1...1            ( 0.00    -0.4972)
  
 Spin polar: 1 (Spin_A minus Spin_B electrons)

 CYCLE    8
  SDIIS (wt  1.000):  0.0051 -0.0052  0.0001 -0.0016 -0.0068 -0.0259  1.0343
  DIIS coefficients:  0.0051 -0.0052  0.0001 -0.0016 -0.0068 -0.0259  1.0343
 SCF Error: norm([F,P])=      0.000043694325, max([F,P])=      0.000010899659
 ***** SPIN 1 *****
 orbitals (Q,E):
 ---------------
 S :1...6            ( 1.00 -1426.2199)  ( 1.00  -228.4525)  ( 1.00   -49.6416)  ( 1.00   -10.5944)
                     ( 1.00    -2.0090)  ( 0.00    -0.4750)
 P :1...5            ( 3.00  -204.7405)  ( 3.00   -42.0675)  ( 3.00    -8.1007)  ( 3.00    -1.3644)
                     ( 0.00    -0.3457)
 D :1...4            ( 5.00   -31.1132)  ( 5.00    -4.4447)  ( 1.00    -0.5285)  ( 0.00    -0.1971)
 F :1...1            ( 0.00    -0.5055)
 ***** SPIN 2 *****
 orbitals (Q,E):
 ---------------
 S :1...6            ( 1.00 -1426.2201)  ( 1.00  -228.4511)  ( 1.00   -49.6411)  ( 1.00   -10.5922)
                     ( 1.00    -1.9932)  ( 0.00    -0.4507)
 P :1...5            ( 3.00  -204.7393)  ( 3.00   -42.0669)  ( 3.00    -8.0987)  ( 3.00    -1.3410)
                     ( 0.00    -0.3176)
 D :1...3            ( 5.00   -31.1118)  ( 5.00    -4.4423)  ( 0.00    -0.4877)
 F :1...1            ( 0.00    -0.4972)
  
 Spin polar: 1 (Spin_A minus Spin_B electrons)

 CYCLE    9
  SDIIS (wt  1.000):  0.0001 -0.0001  0.0000  0.0001 -0.0003 -0.0016 -0.0918  1.0936
  DIIS coefficients:  0.0001 -0.0001  0.0000  0.0001 -0.0003 -0.0016 -0.0918  1.0936
 SCF Error: norm([F,P])=      0.000004138963, max([F,P])=      0.000000940989
 ***** SPIN 1 *****
 orbitals (Q,E):
 ---------------
 S :1...6            ( 1.00 -1426.2199)  ( 1.00  -228.4525)  ( 1.00   -49.6416)  ( 1.00   -10.5944)
                     ( 1.00    -2.0090)  ( 0.00    -0.4750)
 P :1...5            ( 3.00  -204.7405)  ( 3.00   -42.0675)  ( 3.00    -8.1007)  ( 3.00    -1.3644)
                     ( 0.00    -0.3457)
 D :1...4            ( 5.00   -31.1132)  ( 5.00    -4.4447)  ( 1.00    -0.5285)  ( 0.00    -0.1971)
 F :1...1            ( 0.00    -0.5055)
 ***** SPIN 2 *****
 orbitals (Q,E):
 ---------------
 S :1...6            ( 1.00 -1426.2201)  ( 1.00  -228.4511)  ( 1.00   -49.6411)  ( 1.00   -10.5922)
                     ( 1.00    -1.9932)  ( 0.00    -0.4506)
 P :1...5            ( 3.00  -204.7393)  ( 3.00   -42.0669)  ( 3.00    -8.0987)  ( 3.00    -1.3410)
                     ( 0.00    -0.3175)
 D :1...3            ( 5.00   -31.1118)  ( 5.00    -4.4423)  ( 0.00    -0.4877)
 F :1...1            ( 0.00    -0.4972)
  
 Spin polar: 1 (Spin_A minus Spin_B electrons)

 SCF CONVERGED

 CYCLE   10
1
 ***************************************************************************************************



                                                *******************
                                                *  R E S U L T S  *
                                                *******************
  
  
 Hartree-Fock exchange energy:   -201.857127036201     
 *** Using FIT density in Focky
  SDIIS (wt  1.000): -0.0000  0.0000  0.0000  0.0000  0.0000 -0.0000 -0.0007 -0.0348  1.0355
  DIIS coefficients: -0.0000  0.0000  0.0000  0.0000  0.0000 -0.0000 -0.0007 -0.0348  1.0355
 SCF Error: norm([F,P])=      0.000000214639, max([F,P])=      0.000000055810


                                   ***** SPIN 1 *****

 Scaled ZORA Orbital Energies, per Irrep and Spin:
 =================================================
                        Occup              E (au)              E (eV)       Diff (eV) with prev. cycle
                        -----      --------------------        ------       --------------------------
 S
               1        1.000     -0.14262198955524E+04    -38809.418              -1.68E-06
               2        1.000     -0.22845253166776E+03     -6216.510              -2.54E-06
               3        1.000     -0.49641646659802E+02     -1350.818              -1.93E-06
               4        1.000     -0.10594383479588E+02      -288.288              -1.74E-06
               5        1.000     -0.20090244035453E+01       -54.668              -6.65E-07
               6        0.000     -0.47504232970712E+00       -12.927
               7        0.000     -0.20632786525654E+00        -5.614
               8        0.000     -0.38192350536222E-01        -1.039
               9        0.000      0.10909336840015E+01        29.686
              10        0.000      0.91699686659678E+01       249.528
              11        0.000      0.61454011074213E+02      1672.249
              12        0.000      0.93959837591853E+03     25567.773
              13        0.000      0.58718114495042E+04    159780.119
              14        0.000      0.25948814506678E+05    706103.170
 P
               1        3.000     -0.20474050201926E+03     -5571.273              -2.48E-06
               2        3.000     -0.42067493027814E+02     -1144.715              -1.92E-06
               3        3.000     -0.81007120755820E+01      -220.432              -1.69E-06
               4        3.000     -0.13644360080471E+01       -37.128              -5.60E-07
               5        0.000     -0.34567328998394E+00        -9.406
               6        0.000      0.19121982094618E+00         5.203
               7        0.000      0.52011124972805E+01       141.529
               8        0.000      0.38842811191607E+02      1056.967
               9        0.000      0.37299130987826E+03     10149.610
              10        0.000      0.37521737716547E+04    102101.843
 D
               1        5.000     -0.31113164065703E+02      -846.632              -2.04E-06
               2        5.000     -0.44446836857885E+01      -120.946              -1.61E-06
               3        1.000     -0.52853828772885E+00       -14.382              -7.59E-07
               4        0.000     -0.19706852862848E+00        -5.363
               5        0.000      0.24876614631180E+00         6.769
               6        0.000      0.43451826230899E+01       118.238
               7        0.000      0.47887233792382E+02      1303.078
 F
               1        0.000     -0.50549008490629E+00       -13.755
               2        0.000      0.12913807439255E+00         3.514
               3        0.000      0.41632553116533E+01       113.288


 Partially Occupied:
               3 D                -0.52853828772885E+00
  
 HOMO :        4 P                -0.13644360080471E+01
 LUMO :        1 F                -0.50549008490629E+00
  


                                   ***** SPIN 2 *****

 Scaled ZORA Orbital Energies, per Irrep and Spin:
 =================================================
                        Occup              E (au)              E (eV)       Diff (eV) with prev. cycle
                        -----      --------------------        ------       --------------------------
 S
               1        1.000     -0.14262200695229E+04    -38809.423              -1.75E-06
               2        1.000     -0.22845109652162E+03     -6216.471              -2.60E-06
               3        1.000     -0.49641114996399E+02     -1350.803              -1.99E-06
               4        1.000     -0.10592244654244E+02      -288.230              -1.86E-06
               5        1.000     -0.19931850980881E+01       -54.237              -1.83E-06
               6        0.000     -0.45064662395660E+00       -12.263
               7        0.000     -0.18379171932891E+00        -5.001
               8        0.000     -0.19818339682573E-01        -0.539
               9        0.000      0.11087183257705E+01        30.170
              10        0.000      0.91754716700212E+01       249.677
              11        0.000      0.61455992338965E+02      1672.303
              12        0.000      0.93959873003161E+03     25567.782
              13        0.000      0.58718114679026E+04    159780.120
              14        0.000      0.25948814484346E+05    706103.169
 P
               1        3.000     -0.20473931332661E+03     -5571.240              -2.57E-06
               2        3.000     -0.42066859929488E+02     -1144.698              -2.01E-06
               3        3.000     -0.80986818564377E+01      -220.376              -1.82E-06
               4        3.000     -0.13410474293045E+01       -36.492              -1.44E-06
               5        0.000     -0.31753277858740E+00        -8.641
               6        0.000      0.21477399354950E+00         5.844
               7        0.000      0.52080426660909E+01       141.718
               8        0.000      0.38845000891633E+02      1057.026
               9        0.000      0.37299213797440E+03     10149.632
              10        0.000      0.37521738213897E+04    102101.845
 D
               1        5.000     -0.31111838119703E+02      -846.596              -2.11E-06
               2        5.000     -0.44423057326705E+01      -120.881              -1.74E-06
               3        0.000     -0.48766435815135E+00       -13.270
               4        0.000     -0.16580353861475E+00        -4.512
               5        0.000      0.26785186648644E+00         7.289
               6        0.000      0.43530330342022E+01       118.452
               7        0.000      0.47889518380983E+02      1303.140
 F
               1        0.000     -0.49721765251138E+00       -13.530
               2        0.000      0.15119457529430E+00         4.114
               3        0.000      0.41685890050199E+01       113.433
  
 HOMO :        4 P                -0.13410474293045E+01
 LUMO :        1 F                -0.49721765251138E+00
  


 Orbital Energies, all Irreps, both Spins
 ========================================

 Irrep        no.  (spin)   Occup              E (au)                E (eV)
 ---------------------------------------------------------------------------
 S             1      B      1.00       -0.14262200695229E+04    -38809.4227
 S             1     A       1.00       -0.14262198955524E+04    -38809.4180
 S             2     A       1.00       -0.22845253166776E+03     -6216.5097
 S             2      B      1.00       -0.22845109652162E+03     -6216.4706
 P             1     A       3.00       -0.20474050201926E+03     -5571.2725
 P             1      B      3.00       -0.20473931332661E+03     -5571.2402
 S             3     A       1.00       -0.49641646659802E+02     -1350.8179
 S             3      B      1.00       -0.49641114996399E+02     -1350.8035
 P             2     A       3.00       -0.42067493027814E+02     -1144.7147
 P             2      B      3.00       -0.42066859929488E+02     -1144.6975
 D             1     A       5.00       -0.31113164065703E+02      -846.6323
 D             1      B      5.00       -0.31111838119703E+02      -846.5962
 S             4     A       1.00       -0.10594383479588E+02      -288.2878
 S             4      B      1.00       -0.10592244654244E+02      -288.2296
 P             3     A       3.00       -0.81007120755820E+01      -220.4316
 P             3      B      3.00       -0.80986818564377E+01      -220.3763
 D             2     A       5.00       -0.44446836857885E+01      -120.9460
 D             2      B      5.00       -0.44423057326705E+01      -120.8813
 S             5     A       1.00       -0.20090244035453E+01       -54.6683
 S             5      B      1.00       -0.19931850980881E+01       -54.2373
 P             4     A       3.00       -0.13644360080471E+01       -37.1282
 P             4      B      3.00       -0.13410474293045E+01       -36.4918
 D             3     A       1.00       -0.52853828772885E+00       -14.3823
 F             1     A       0.00       -0.50549008490629E+00       -13.7551
 F             1      B      0.00       -0.49721765251138E+00       -13.5300
 D             3      B      0.00       -0.48766435815135E+00       -13.2700
 S             6     A       0.00       -0.47504232970712E+00       -12.9266
 S             6      B      0.00       -0.45064662395660E+00       -12.2627
 P             5     A       0.00       -0.34567328998394E+00        -9.4062
 P             5      B      0.00       -0.31753277858740E+00        -8.6405
 S             7     A       0.00       -0.20632786525654E+00        -5.6145
 D             4     A       0.00       -0.19706852862848E+00        -5.3625
 S             7      B      0.00       -0.18379171932891E+00        -5.0012
 D             4      B      0.00       -0.16580353861475E+00        -4.5117
 S             8     A       0.00       -0.38192350536222E-01        -1.0393
 S             8      B      0.00       -0.19818339682573E-01        -0.5393
 F             2     A       0.00        0.12913807439255E+00         3.5140
 F             2      B      0.00        0.15119457529430E+00         4.1142
 P             6     A       0.00        0.19121982094618E+00         5.2034
 P             6      B      0.00        0.21477399354950E+00         5.8443
 D             5     A       0.00        0.24876614631180E+00         6.7693
 D             5      B      0.00        0.26785186648644E+00         7.2886
 S             9     A       0.00        0.10909336840015E+01        29.6858
 S             9      B      0.00        0.11087183257705E+01        30.1698
 F             3     A       0.00        0.41632553116533E+01       113.2879
 F             3      B      0.00        0.41685890050199E+01       113.4331
 D             6     A       0.00        0.43451826230899E+01       118.2384
 D             6      B      0.00        0.43530330342022E+01       118.4521
 P             7     A       0.00        0.52011124972805E+01       141.5295
 P             7      B      0.00        0.52080426660909E+01       141.7181
 S            10     A       0.00        0.91699686659678E+01       249.5275
 S            10      B      0.00        0.91754716700212E+01       249.6773
 P             8     A       0.00        0.38842811191607E+02      1056.9667
 P             8      B      0.00        0.38845000891633E+02      1057.0263
 D             7     A       0.00        0.47887233792382E+02      1303.0779
 D             7      B      0.00        0.47889518380983E+02      1303.1401
 S            11     A       0.00        0.61454011074213E+02      1672.2487
 S            11      B      0.00        0.61455992338965E+02      1672.3026
 P             9     A       0.00        0.37299130987826E+03     10149.6100
 P             9      B      0.00        0.37299213797440E+03     10149.6325
 S            12     A       0.00        0.93959837591853E+03     25567.7727
 S            12      B      0.00        0.93959873003161E+03     25567.7823
 P            10     A       0.00        0.37521737716547E+04    102101.8433
 P            10      B      0.00        0.37521738213897E+04    102101.8447
 S            13     A       0.00        0.58718114495042E+04    159780.1192
 S            13      B      0.00        0.58718114679026E+04    159780.1197
 S            14      B      0.00        0.25948814484346E+05    706103.1689
 S            14     A       0.00        0.25948814506678E+05    706103.1695
  
 Spin polar: 1 (Spin_A minus Spin_B electrons)


                                   ***** SPIN 1 *****

                                       === S ===


 ======  Eigenvectors (columns) in BAS representation

  column           1                   2                   3                   4
  row   
    1    1.17525763903256E-02  3.49481363813679E-03 -1.19414000707277E-03 -5.47202846775862E-04
    2    8.70950348215081E-02  7.10436318927198E-02 -6.47628342120533E-02 -3.28773911614701E-02
    3    9.32409634864731E-01  2.06786563410095E-01 -1.60476457091251E-02 -2.51974837178572E-03
    4   -1.44214175993844E-02  1.77541323265832E-01 -1.64034513053068E-01 -8.39940135202709E-02
    5    1.49005464517913E-03 -1.11936680557785E+00  6.85159437035858E-01  3.41856076230580E-01
    6   -5.61022224659075E-03 -6.08299156137044E-03 -7.38910637478350E-01  1.85995777289553E-01
    7    8.89805605818280E-03  1.24974050878622E-02 -7.53858210138381E-01 -1.87949225250411E+00
    8   -4.71846756112802E-03 -9.90764004681842E-03  4.18078059281478E-01  1.55150079329429E+00
    9    8.03758660319517E-04  3.22900461815117E-03 -9.29642389455464E-02  6.58717334963077E-01
   10   -3.28364690008172E-04 -1.69337724506127E-03  4.25203566242631E-02  1.21701414140059E-02
   11    2.10459270080264E-04  1.17062515112846E-03 -2.84562192885851E-02 -8.05541433364368E-03
   12   -1.09188780967555E-04 -6.33743473974011E-04  1.51962018159748E-02  5.15371661718992E-03
   13    5.84723735331933E-05  3.46012408206239E-04 -8.26002244461429E-03 -3.03305000930209E-03
   14   -2.10033396376471E-05 -1.25331161468005E-04  2.98796252753029E-03  1.13660945788084E-03

  column           5                   6                   7                   8
  row   
    1    2.30929749068751E-04  9.13370632811693E-05  5.19535996076239E-05  9.05035334166483E-05
    2    1.34099245753921E-02  5.31244076609259E-03  2.88922488230996E-03  3.46830442753116E-03
    3    1.56969216248325E-03  6.05478712995808E-04  5.08394938458839E-04  2.82690510094158E-03
    4    3.44545697016292E-02  1.36548027146042E-02  7.45406804047166E-03  9.28272553526092E-03
    5   -1.42224161209288E-01 -5.63539965687194E-02 -3.12582547514068E-02 -4.49919825597907E-02
    6   -2.18729031246134E-01 -9.30966506506429E-02 -6.14285803959819E-02 -1.98863810167994E-01
    7    1.11966134880636E+00  4.59673893335540E-01  2.76234887120307E-01  6.35144983002292E-01
    8   -9.43142577016045E-01 -3.87785511685227E-01 -2.32245352134317E-01 -5.24634338002601E-01
    9   -2.90351251809362E-01 -1.21782945744834E-01 -6.07836233399073E-02  2.21010752396787E-03
   10    7.75458172128172E-01  4.11687969352411E-01  2.25852684109383E-01  1.68037520509944E-01
   11    4.04040693701426E-01  5.68484242295231E-02  5.03243568241341E-02  4.25404375579306E-01
   12   -2.37113646397217E-02 -7.37394738428650E-01 -6.10205152338419E-01 -1.94063401342456E+00
   13    1.18325820207458E-02 -3.97922336966260E-01  8.23306991115269E-02  2.72662942977034E+00
   14   -4.08693793785591E-03  3.92141564382704E-02  9.92044631038906E-01 -1.58040225879093E+00

  column           9                  10                  11                  12
  row   
    1   -1.12433842503372E-04 -1.29313899691598E-03 -2.66536816936295E-03  7.14156990438278E-02
    2   -2.08453597223046E-02  2.45971839984329E-02  4.21779308643111E-01 -4.41452994321996E+00
    3    1.70321333683743E-02 -1.32778479405364E-01 -7.45688417093657E-01  1.12942024565980E+01
    4   -5.06930826332561E-02  4.30699763269496E-02  9.78911357938385E-01 -9.20714299806780E+00
    5    1.56065185646667E-01  1.94587165073431E-01 -1.90097344291486E+00  2.54256744826474E+00
    6   -7.22433143453194E-01  8.19975301639687E+00  2.97836937544727E+01 -1.47340408112265E+01
    7    8.29979254814788E-01 -1.86923387188354E+01 -5.20065625077349E+01  2.37728783268987E+01
    8   -6.18917695066961E-01  1.54203120694765E+01  2.98122403098702E+01 -1.27183270442059E+01
    9    1.21246620545127E+00 -6.31437136696161E+00 -5.75464993076378E+00  2.17984603663196E+00
   10   -3.16154853743998E+00  3.95216502027787E+00  2.39109992742161E+00 -8.85680048263268E-01
   11    4.00397939201275E+00 -2.79153387050305E+00 -1.51993363206780E+00  5.65711790850911E-01
   12   -3.02817374809791E+00  1.47805879366849E+00  7.79997265926934E-01 -2.92684227472941E-01
   13    1.83069069678381E+00 -7.87168551472039E-01 -4.14694097229260E-01  1.56504503998114E-01
   14   -6.72098068143958E-01  2.80633508614419E-01  1.48387489849399E-01 -5.61765804515869E-02

  column          13                  14
  row   
    1   -2.44398048841839E-01  1.57085606685812E+00
    2    1.07644092952661E+01 -7.29557444514555E+00
    3   -2.07822686818304E+01  1.26399647830382E+01
    4    1.31687294680745E+01 -7.68914664064120E+00
    5   -1.49600838001572E+00  7.56301091949420E-01
    6    7.77522395682332E+00 -3.92795597633847E+00
    7   -1.24791643722637E+01  6.30722795854681E+00
    8    6.65370572595405E+00 -3.36500729378080E+00
    9   -1.13557478338541E+00  5.75336136517748E-01
   10    4.61663925293439E-01 -2.34215466483361E-01
   11   -2.95141351041618E-01  1.49816488246760E-01
   12    1.52818447660656E-01 -7.75992522503526E-02
   13   -8.17534811689781E-02  4.15206429183230E-02
   14    2.93519853987535E-02 -1.49083663483440E-02

                                       === P:x ===


 ======  Eigenvectors (columns) in BAS representation

  column           1                   2                   3                   4
  row   
    1    6.52595219835009E-03  3.50023150049951E-03  1.73380271949136E-03 -6.45906764676568E-04
    2    1.84620848852018E-01  5.56527002990626E-02  2.10492502725967E-02 -8.16340953020018E-03
    3    8.43715294702256E-01  4.91739404156071E-01  2.42057542150830E-01 -9.21680378852445E-02
    4   -5.86674872104437E-02 -8.34529491184803E-01 -4.27250858142234E-01  1.49097330984145E-01
    5    6.25282441638469E-02 -3.25306717290688E-01 -3.31866654736684E-01  1.72738029878253E-01
    6   -2.90895245838213E-02 -1.14861240436539E-02  8.24253930081017E-01 -4.65837174912579E-01
    7    1.44640215702264E-02  5.39318694216103E-03  4.40813943702376E-01 -8.72867257590902E-02
    8   -4.63645893105640E-03 -1.81301926884468E-03 -3.95654556362132E-03  8.02271144131554E-01
    9    1.95419024239800E-03  7.85889956344086E-04  2.25354574104405E-03  3.23583975733770E-01
   10   -4.49581759653441E-04 -1.82569291639852E-04 -4.97260255580833E-04 -1.06903847863803E-02

  column           5                   6                   7                   8
  row   
    1   -2.77551515877423E-04  9.20496530836692E-04  2.14711358354835E-03  2.63579886098553E-02
    2   -1.91620828779598E-03 -1.30219056386770E-03 -9.22800770301319E-02 -4.16923459140289E-01
    3   -3.48026496094375E-02  9.21237426679663E-02 -5.40353038979050E-02  1.63621388964667E+00
    4    7.08188120512233E-02 -2.69869770646953E-01 -1.14459786535007E+00 -1.00068534592120E+01
    5    3.28056430624467E-02  1.00704793356928E-01  2.94493569485683E+00  1.28432490738631E+01
    6   -1.28307652048703E-01  4.46549243698534E-02 -5.17526656662134E+00 -7.59495563004840E+00
    7   -8.26027545222667E-02  5.07407033566835E-01  4.82475926207640E+00  4.08239103738956E+00
    8    4.56444878244481E-01 -1.73424652935143E+00 -2.44464891438329E+00 -1.32225866668403E+00
    9   -2.17447946781118E-01  1.88721857452047E+00  1.14708397113374E+00  5.49020627161518E-01
   10   -9.16917854541220E-01 -8.00377763381944E-01 -2.69366375078056E-01 -1.24670154104354E-01

  column           9                  10
  row   
    1   -1.75344390416359E-01 -1.46180067873714E+00
    2    3.74777218804006E+00  2.68528772153282E+00
    3   -5.04311897821076E+00 -2.73476415151817E+00
    4    8.47776410930680E+00  3.75641247548481E+00
    5   -8.75033945595004E+00 -3.80020542991146E+00
    6    3.99196541277329E+00  1.71381583631859E+00
    7   -1.95255768115940E+00 -8.38955917611246E-01
    8    6.10995986067497E-01  2.63904684495536E-01
    9   -2.54299608789314E-01 -1.10211106244190E-01
   10    5.80863048502241E-02  2.52265003695931E-02

                                       === P:y ===


 ======  Eigenvectors (columns) in BAS representation

  column           1                   2                   3                   4
  row   
    1    6.52595219835009E-03  3.50023150049951E-03  1.73380271949136E-03 -6.45906764676568E-04
    2    1.84620848852018E-01  5.56527002990626E-02  2.10492502725967E-02 -8.16340953020018E-03
    3    8.43715294702256E-01  4.91739404156071E-01  2.42057542150830E-01 -9.21680378852445E-02
    4   -5.86674872104437E-02 -8.34529491184803E-01 -4.27250858142234E-01  1.49097330984145E-01
    5    6.25282441638469E-02 -3.25306717290688E-01 -3.31866654736684E-01  1.72738029878253E-01
    6   -2.90895245838213E-02 -1.14861240436539E-02  8.24253930081017E-01 -4.65837174912579E-01
    7    1.44640215702264E-02  5.39318694216103E-03  4.40813943702376E-01 -8.72867257590902E-02
    8   -4.63645893105640E-03 -1.81301926884468E-03 -3.95654556362132E-03  8.02271144131554E-01
    9    1.95419024239800E-03  7.85889956344086E-04  2.25354574104405E-03  3.23583975733770E-01
   10   -4.49581759653441E-04 -1.82569291639852E-04 -4.97260255580833E-04 -1.06903847863803E-02

  column           5                   6                   7                   8
  row   
    1   -2.77551515877423E-04  9.20496530836692E-04  2.14711358354835E-03  2.63579886098553E-02
    2   -1.91620828779598E-03 -1.30219056386770E-03 -9.22800770301319E-02 -4.16923459140289E-01
    3   -3.48026496094375E-02  9.21237426679663E-02 -5.40353038979050E-02  1.63621388964667E+00
    4    7.08188120512233E-02 -2.69869770646953E-01 -1.14459786535007E+00 -1.00068534592120E+01
    5    3.28056430624467E-02  1.00704793356928E-01  2.94493569485683E+00  1.28432490738631E+01
    6   -1.28307652048703E-01  4.46549243698534E-02 -5.17526656662134E+00 -7.59495563004840E+00
    7   -8.26027545222667E-02  5.07407033566835E-01  4.82475926207640E+00  4.08239103738956E+00
    8    4.56444878244481E-01 -1.73424652935143E+00 -2.44464891438329E+00 -1.32225866668403E+00
    9   -2.17447946781118E-01  1.88721857452047E+00  1.14708397113374E+00  5.49020627161518E-01
   10   -9.16917854541220E-01 -8.00377763381944E-01 -2.69366375078056E-01 -1.24670154104354E-01

  column           9                  10
  row   
    1   -1.75344390416359E-01 -1.46180067873714E+00
    2    3.74777218804006E+00  2.68528772153282E+00
    3   -5.04311897821076E+00 -2.73476415151817E+00
    4    8.47776410930680E+00  3.75641247548481E+00
    5   -8.75033945595004E+00 -3.80020542991146E+00
    6    3.99196541277329E+00  1.71381583631859E+00
    7   -1.95255768115940E+00 -8.38955917611246E-01
    8    6.10995986067497E-01  2.63904684495536E-01
    9   -2.54299608789314E-01 -1.10211106244190E-01
   10    5.80863048502241E-02  2.52265003695931E-02

                                       === P:z ===


 ======  Eigenvectors (columns) in BAS representation

  column           1                   2                   3                   4
  row   
    1    6.52595219835009E-03  3.50023150049951E-03  1.73380271949136E-03 -6.45906764676568E-04
    2    1.84620848852018E-01  5.56527002990626E-02  2.10492502725967E-02 -8.16340953020018E-03
    3    8.43715294702256E-01  4.91739404156071E-01  2.42057542150830E-01 -9.21680378852445E-02
    4   -5.86674872104437E-02 -8.34529491184803E-01 -4.27250858142234E-01  1.49097330984145E-01
    5    6.25282441638469E-02 -3.25306717290688E-01 -3.31866654736684E-01  1.72738029878253E-01
    6   -2.90895245838213E-02 -1.14861240436539E-02  8.24253930081017E-01 -4.65837174912579E-01
    7    1.44640215702264E-02  5.39318694216103E-03  4.40813943702376E-01 -8.72867257590902E-02
    8   -4.63645893105640E-03 -1.81301926884468E-03 -3.95654556362132E-03  8.02271144131554E-01
    9    1.95419024239800E-03  7.85889956344086E-04  2.25354574104405E-03  3.23583975733770E-01
   10   -4.49581759653441E-04 -1.82569291639852E-04 -4.97260255580833E-04 -1.06903847863803E-02

  column           5                   6                   7                   8
  row   
    1   -2.77551515877423E-04  9.20496530836692E-04  2.14711358354835E-03  2.63579886098553E-02
    2   -1.91620828779598E-03 -1.30219056386770E-03 -9.22800770301319E-02 -4.16923459140289E-01
    3   -3.48026496094375E-02  9.21237426679663E-02 -5.40353038979050E-02  1.63621388964667E+00
    4    7.08188120512233E-02 -2.69869770646953E-01 -1.14459786535007E+00 -1.00068534592120E+01
    5    3.28056430624467E-02  1.00704793356928E-01  2.94493569485683E+00  1.28432490738631E+01
    6   -1.28307652048703E-01  4.46549243698534E-02 -5.17526656662134E+00 -7.59495563004840E+00
    7   -8.26027545222667E-02  5.07407033566835E-01  4.82475926207640E+00  4.08239103738956E+00
    8    4.56444878244481E-01 -1.73424652935143E+00 -2.44464891438329E+00 -1.32225866668403E+00
    9   -2.17447946781118E-01  1.88721857452047E+00  1.14708397113374E+00  5.49020627161518E-01
   10   -9.16917854541220E-01 -8.00377763381944E-01 -2.69366375078056E-01 -1.24670154104354E-01

  column           9                  10
  row   
    1   -1.75344390416359E-01 -1.46180067873714E+00
    2    3.74777218804006E+00  2.68528772153282E+00
    3   -5.04311897821076E+00 -2.73476415151817E+00
    4    8.47776410930680E+00  3.75641247548481E+00
    5   -8.75033945595004E+00 -3.80020542991146E+00
    6    3.99196541277329E+00  1.71381583631859E+00
    7   -1.95255768115940E+00 -8.38955917611246E-01
    8    6.10995986067497E-01  2.63904684495536E-01
    9   -2.54299608789314E-01 -1.10211106244190E-01
   10    5.80863048502241E-02  2.52265003695931E-02

                                       === D:z2 ===


 ======  Eigenvectors (columns) in BAS representation

  column           1                   2                   3                   4
  row   
    1    2.01551434120710E-01 -9.56685804877330E-02  2.67923414809148E-02  1.19350938278260E-02
    2    2.01551434120710E-01 -9.56685804877330E-02  2.67923414809148E-02  1.19350938278260E-02
    3   -4.03102868241419E-01  1.91337160975466E-01 -5.35846829618295E-02 -2.38701876556520E-02
    4    3.25274208806919E-01 -1.44190555759476E-01  4.13925584105426E-02  1.94042086796324E-02
    5    3.25274208806919E-01 -1.44190555759476E-01  4.13925584105426E-02  1.94042086796324E-02
    6   -6.50548417613837E-01  2.88381111518952E-01 -8.27851168210852E-02 -3.88084173592648E-02
    7   -5.09573097388599E-03  3.56316305197375E-01 -1.23159376772499E-01 -5.88391433704948E-02
    8   -5.09573097388599E-03  3.56316305197375E-01 -1.23159376772499E-01 -5.88391433704948E-02
    9    1.01914619477720E-02 -7.12632610394750E-01  2.46318753544997E-01  1.17678286740990E-01
[...]
   -1144.698  1.00     2 P:z      100.00%     2 P:z         -1132.104  2.00     1 La
    -846.596  1.00     1 D:z2     100.00%     1 D:z2         -834.010  2.00     1 La
    -846.596  1.00     1 D:x2-y2  100.00%     1 D:x2-y2      -834.010  2.00     1 La
    -846.596  1.00     1 D:xy     100.00%     1 D:xy         -834.010  2.00     1 La
    -846.596  1.00     1 D:xz     100.00%     1 D:xz         -834.010  2.00     1 La
    -846.596  1.00     1 D:yz     100.00%     1 D:yz         -834.010  2.00     1 La
    -288.230  1.00     4 S        100.00%     4 S            -275.697  2.00     1 La
    -220.376  1.00     3 P:x      100.00%     3 P:x          -207.834  2.00     1 La
    -220.376  1.00     3 P:y      100.00%     3 P:y          -207.834  2.00     1 La
    -220.376  1.00     3 P:z      100.00%     3 P:z          -207.834  2.00     1 La
    -120.881  1.00     2 D:z2     100.00%     2 D:z2         -108.355  2.00     1 La
    -120.881  1.00     2 D:x2-y2  100.00%     2 D:x2-y2      -108.355  2.00     1 La
    -120.881  1.00     2 D:xy     100.00%     2 D:xy         -108.355  2.00     1 La
    -120.881  1.00     2 D:xz     100.00%     2 D:xz         -108.355  2.00     1 La
    -120.881  1.00     2 D:yz     100.00%     2 D:yz         -108.355  2.00     1 La
     -54.237  1.00     5 S        100.00%     5 S             -42.031  2.00     1 La
     -36.492  1.00     4 P:x       99.97%     4 P:x           -24.420  2.00     1 La
                                    0.03%     5 P:x            -0.738  0.00     1 La
     -36.492  1.00     4 P:y       99.97%     4 P:y           -24.420  2.00     1 La
                                    0.03%     5 P:y            -0.738  0.00     1 La
     -36.492  1.00     4 P:z       99.97%     4 P:z           -24.420  2.00     1 La
                                    0.03%     5 P:z            -0.738  0.00     1 La
     -13.530  0.00     1 F:z3      99.92%     1 F:z3           -1.222  0.00     1 La
                                    0.08%     2 F:z3           15.174  0.00     1 La
     -13.530  0.00     1 F:z       99.92%     1 F:z            -1.222  0.00     1 La
                                    0.08%     2 F:z            15.174  0.00     1 La
     -13.530  0.00     1 F:xyz     99.92%     1 F:xyz          -1.222  0.00     1 La
                                    0.08%     2 F:xyz          15.174  0.00     1 La
     -13.530  0.00     1 F:z2x     99.92%     1 F:z2x          -1.222  0.00     1 La
                                    0.08%     2 F:z2x          15.174  0.00     1 La
     -13.530  0.00     1 F:z2y     99.92%     1 F:z2y          -1.222  0.00     1 La
                                    0.08%     2 F:z2y          15.174  0.00     1 La
     -13.530  0.00     1 F:x       99.92%     1 F:x            -1.222  0.00     1 La
                                    0.08%     2 F:x            15.174  0.00     1 La
     -13.530  0.00     1 F:y       99.92%     1 F:y            -1.222  0.00     1 La
                                    0.08%     2 F:y            15.174  0.00     1 La
     -13.270  0.00     3 D:z2      95.50%     3 D:z2           -2.405  0.20     1 La
                                    4.34%     4 D:z2            2.337  0.00     1 La
     -13.270  0.00     3 D:x2-y2   95.50%     3 D:x2-y2        -2.405  0.20     1 La
                                    4.34%     4 D:x2-y2         2.337  0.00     1 La
     -13.270  0.00     3 D:xy      95.50%     3 D:xy           -2.405  0.20     1 La
                                    4.34%     4 D:xy            2.337  0.00     1 La
     -13.270  0.00     3 D:xz      95.50%     3 D:xz           -2.405  0.20     1 La
                                    4.34%     4 D:xz            2.337  0.00     1 La
     -13.270  0.00     3 D:yz      95.50%     3 D:yz           -2.405  0.20     1 La
                                    4.34%     4 D:yz            2.337  0.00     1 La
     -12.263  0.00     6 S         94.61%     6 S              -4.235  2.00     1 La
                                    3.52%     7 S               0.628  0.00     1 La
                                    1.86%     8 S               7.351  0.00     1 La
      -8.641  0.00     5 P:x       98.84%     5 P:x            -0.738  0.00     1 La
                                    1.13%     6 P:x            16.294  0.00     1 La
      -8.641  0.00     5 P:y       98.84%     5 P:y            -0.738  0.00     1 La
                                    1.13%     6 P:y            16.294  0.00     1 La
      -8.641  0.00     5 P:z       98.84%     5 P:z            -0.738  0.00     1 La
                                    1.13%     6 P:z            16.294  0.00     1 La
      -5.001  0.00     7 S         89.80%     7 S               0.628  0.00     1 La
                                    5.53%     8 S               7.351  0.00     1 La
                                    4.66%     6 S              -4.235  2.00     1 La
      -4.512  0.00     4 D:z2      94.29%     4 D:z2            2.337  0.00     1 La
                                    4.48%     3 D:z2           -2.405  0.20     1 La
                                    1.23%     5 D:z2           17.469  0.00     1 La
      -4.512  0.00     4 D:x2-y2   94.29%     4 D:x2-y2         2.337  0.00     1 La
                                    4.48%     3 D:x2-y2        -2.405  0.20     1 La
                                    1.23%     5 D:x2-y2        17.469  0.00     1 La
      -4.512  0.00     4 D:xy      94.29%     4 D:xy            2.337  0.00     1 La
                                    4.48%     3 D:xy           -2.405  0.20     1 La
                                    1.23%     5 D:xy           17.469  0.00     1 La
      -4.512  0.00     4 D:xz      94.29%     4 D:xz            2.337  0.00     1 La
                                    4.48%     3 D:xz           -2.405  0.20     1 La
                                    1.23%     5 D:xz           17.469  0.00     1 La
      -4.512  0.00     4 D:yz      94.29%     4 D:yz            2.337  0.00     1 La
                                    4.48%     3 D:yz           -2.405  0.20     1 La
                                    1.23%     5 D:yz           17.469  0.00     1 La
      -0.539  0.00     8 S         92.42%     8 S               7.351  0.00     1 La
                                    6.68%     7 S               0.628  0.00     1 La
       4.114  0.00     2 F:z3      99.91%     2 F:z3           15.174  0.00     1 La
                                    0.08%     1 F:z3           -1.222  0.00     1 La
       4.114  0.00     2 F:z       99.91%     2 F:z            15.174  0.00     1 La
                                    0.08%     1 F:z            -1.222  0.00     1 La
       4.114  0.00     2 F:xyz     99.91%     2 F:xyz          15.174  0.00     1 La
                                    0.08%     1 F:xyz          -1.222  0.00     1 La
       4.114  0.00     2 F:z2x     99.91%     2 F:z2x          15.174  0.00     1 La
                                    0.08%     1 F:z2x          -1.222  0.00     1 La
       4.114  0.00     2 F:z2y     99.91%     2 F:z2y          15.174  0.00     1 La
                                    0.08%     1 F:z2y          -1.222  0.00     1 La
       4.114  0.00     2 F:x       99.91%     2 F:x            15.174  0.00     1 La
                                    0.08%     1 F:x            -1.222  0.00     1 La
       4.114  0.00     2 F:y       99.91%     2 F:y            15.174  0.00     1 La
                                    0.08%     1 F:y            -1.222  0.00     1 La
       5.844  0.00     6 P:x       98.86%     6 P:x            16.294  0.00     1 La
                                    1.13%     5 P:x            -0.738  0.00     1 La
       5.844  0.00     6 P:y       98.86%     6 P:y            16.294  0.00     1 La
                                    1.13%     5 P:y            -0.738  0.00     1 La
       5.844  0.00     6 P:z       98.86%     6 P:z            16.294  0.00     1 La
                                    1.13%     5 P:z            -0.738  0.00     1 La
       7.289  0.00     5 D:z2      98.61%     5 D:z2           17.469  0.00     1 La
                                    1.37%     4 D:z2            2.337  0.00     1 La
       7.289  0.00     5 D:x2-y2   98.61%     5 D:x2-y2        17.469  0.00     1 La
                                    1.37%     4 D:x2-y2         2.337  0.00     1 La
       7.289  0.00     5 D:xy      98.61%     5 D:xy           17.469  0.00     1 La
                                    1.37%     4 D:xy            2.337  0.00     1 La
       7.289  0.00     5 D:xz      98.61%     5 D:xz           17.469  0.00     1 La
                                    1.37%     4 D:xz            2.337  0.00     1 La
       7.289  0.00     5 D:yz      98.61%     5 D:yz           17.469  0.00     1 La
                                    1.37%     4 D:yz            2.337  0.00     1 La
      30.170  0.00     9 S         99.81%     9 S              41.116  0.00     1 La
                                    0.19%     8 S               7.351  0.00     1 La
     113.433  0.00     3 F:z3     100.00%     3 F:z3          125.764  0.00     1 La
     113.433  0.00     3 F:z      100.00%     3 F:z           125.764  0.00     1 La
     113.433  0.00     3 F:xyz    100.00%     3 F:xyz         125.764  0.00     1 La
     113.433  0.00     3 F:z2x    100.00%     3 F:z2x         125.764  0.00     1 La
     113.433  0.00     3 F:z2y    100.00%     3 F:z2y         125.764  0.00     1 La
     113.433  0.00     3 F:x      100.00%     3 F:x           125.764  0.00     1 La
     113.433  0.00     3 F:y      100.00%     3 F:y           125.764  0.00     1 La
     118.452  0.00     6 D:z2      99.99%     6 D:z2          130.571  0.00     1 La
     118.452  0.00     6 D:x2-y2   99.99%     6 D:x2-y2       130.571  0.00     1 La
     118.452  0.00     6 D:xy      99.99%     6 D:xy          130.571  0.00     1 La
     118.452  0.00     6 D:xz      99.99%     6 D:xz          130.571  0.00     1 La
     118.452  0.00     6 D:yz      99.99%     6 D:yz          130.571  0.00     1 La
     141.718  0.00     7 P:x      100.00%     7 P:x           153.900  0.00     1 La
     141.718  0.00     7 P:y      100.00%     7 P:y           153.900  0.00     1 La
     141.718  0.00     7 P:z      100.00%     7 P:z           153.900  0.00     1 La
     249.677  0.00    10 S        100.00%    10 S             261.899  0.00     1 La
  pauli hf:                              0.000000000000000          0.0000             0.00             0.00
  elstat hf:                            -0.000000000356415         -0.0000            -0.00            -0.00



 =======================================================================
 Electrostatic potential at the Nuclei due to electrons and other nuclei
 =======================================================================
  
         Atom                  Potential
         ----                  ---------
     1)   La                365.55328617
 
 
 ========================
 No memory problems found
 ========================
 
 Maximum number of active allocate calls:        1238
 
 *******************************************************************************

                             A D F   E X I T
 NORMAL TERMINATION with warnings



 =================
 Timing Statistics
 =================
  
 Total Used :                     CPU=        3.93      System=        0.31     Elapsed=        4.52

 Calls  Section                     ( Mean, Percentage )
 ---------------------------------------------------------------------------------------------------
     3  ><      ................      0.00    0.08             0.00    1.00             0.00    0.23
     1  INIT    ................      0.53   13.61             0.00    0.74             0.55   12.09
     1  GEOMET  ................      0.02    0.42             0.01    4.08             0.05    1.06
     1  FRAGM   ................      0.01    0.33             0.01    2.88             0.02    0.52
     1  INPUTA  ................      0.00    0.05             0.00    0.00             0.00    0.04
     1  ATDEN   ................      0.00    0.10             0.00    1.26             0.01    0.18
     1  MAINSY  ................      0.01    0.29             0.00    0.97             0.02    0.46
     1  SYMFIT  ................      0.00    0.04             0.00    0.00             0.00    0.03
     1  CORORT  ................      0.00    0.03             0.00    0.00             0.00    0.05
     1  SYMORB  ................      0.00    0.06             0.00    0.00             0.00    0.06
     1  FITINT  ................      0.06    1.55             0.00    0.64             0.06    1.42
     1  CLSMAT  ................      0.00    0.05             0.00    0.03             0.01    0.23
     1  ORTHON  ................      0.02    0.39             0.00    0.00             0.02    0.55
     1  GENPT   ................      0.03    0.82             0.00    0.58             0.04    0.83
     1  PTBAS   ................      0.01    0.29             0.00    0.03             0.01    0.28
    10  FOCKY   ................      0.28   70.03             0.02   54.45             0.30   65.73
    10  FOCKTR  ................      0.01    1.44             0.00    3.68             0.01    1.52
    10  SDIIS   ................      0.00    0.76             0.00    0.40             0.00    1.07
     1  COREPS  ................      0.05    1.31             0.01    2.88             0.17    3.73
     1  TOTEN   ................      0.26    6.60             0.07   21.05             0.35    7.74
     1  POPAN   ................      0.01    0.16             0.00    0.00             0.01    0.18
     1  DEBYE   ................      0.00    0.09             0.00    0.00             0.01    0.11
     1  INPUTE  ................      0.00    0.02             0.00    0.00             0.00    0.02
     1  SYMORE  ................      0.00    0.03             0.00    0.00             0.00    0.03
     2  METS    ................      0.00    0.02             0.00    0.00             0.00    0.05
     1  CETS    ................      0.03    0.70             0.00    0.92             0.03    0.68
     1  ELNRGY  ................      0.00    0.06             0.00    0.00             0.00    0.05
     1  POPUL   ................      0.01    0.32             0.00    1.24             0.02    0.51
     1  EXIT PROCEDURE .........      0.01    0.35             0.01    3.16             0.03    0.56


 Currently Open Files (EXIT00)
 ====================

 Unit    Access Format  Status   Type       Ident (file)
 -------------------------------------------------------
   3      SEQ    FORM   TRANSP  NORMAL      LOGFILE
                                          ( logfile )

 ***************************************************************************************************
 (LOGFILE)
 <Jun25-2019> <23:41:37>  DIRAC 2019  RunTime: Jun25-2019 23:41:37  Nodes: 1  Procs: 1
 <Jun25-2019> <23:41:38>  NORMAL TERMINATION
 <Jun25-2019> <23:41:38>  END
 <Jun25-2019> <23:41:38>  ADF 2019  RunTime: Jun25-2019 23:41:38  Nodes: 1  Procs: 1
 <Jun25-2019> <23:41:38>  Lanthanum (TZP, all electron)
 <Jun25-2019> <23:41:38>  RunType   : CREATE
 <Jun25-2019> <23:41:38>  Net Charge: 0 (Nuclei minus Electrons)
 <Jun25-2019> <23:41:38>  Symmetry  : ATOM
  Coordinates
    Atom         X           Y           Z   (Angstrom)
    1.La        0.000000    0.000000    0.000000
 <Jun25-2019> <23:41:38>  >>>> CORORT
 <Jun25-2019> <23:41:38>  >>>> FITINT
 <Jun25-2019> <23:41:38>  >>>> CLSMAT
 <Jun25-2019> <23:41:38>  >>>> ORTHON
 <Jun25-2019> <23:41:38>  >>>> GENPT
 <Jun25-2019> <23:41:38>  Block Length= 111
 <Jun25-2019> <23:41:38>  >>>> PTBAS
 <Jun25-2019> <23:41:38>  >>>> CYCLE
 <Jun25-2019> <23:41:39>  CalcFitR12Fit
 <Jun25-2019> <23:41:39>  CalcFitCoeff
 <Jun25-2019> <23:41:41>              |Error|         MaxErr       Wt(A-DIIS)
 <Jun25-2019> <23:41:41>      1      0.00000000      0.00000000
 <Jun25-2019> <23:41:41>      2    286.72370100     60.78665314    100.0
 <Jun25-2019> <23:41:41>      3    117.73975561     24.98872801    100.0
 <Jun25-2019> <23:41:41>      4     21.13834678      4.02506126    100.0
 <Jun25-2019> <23:41:42>      5      7.98356312      1.28289041    100.0
 <Jun25-2019> <23:41:42>      6      3.14682360      0.56740461    100.0
 <Jun25-2019> <23:41:42>      7      2.41556609      0.44813054    100.0
 <Jun25-2019> <23:41:42>      8      0.29309894      0.05544911     55.0
 <Jun25-2019> <23:41:42>      9      0.14409701      0.02753108     26.8
 <Jun25-2019> <23:41:42>     10      0.02959099      0.00569799      4.7
 <Jun25-2019> <23:41:42>     11      0.00103191      0.00019152      0.0
 <Jun25-2019> <23:41:43>     12      0.00006068      0.00000998      0.0
 <Jun25-2019> <23:41:43>     13      0.00001397      0.00000252      0.0
 <Jun25-2019> <23:41:43>     14      0.00000027      0.00000005      0.0
 <Jun25-2019> <23:41:43>     15      0.00000002      0.00000000      0.0
 <Jun25-2019> <23:41:43>  SCF converged
 <Jun25-2019> <23:41:43>     16      0.00000000      0.00000000      0.0
 <Jun25-2019> <23:41:43>  >>>> POPAN
 <Jun25-2019> <23:41:43>  >>>> DEBYE
 <Jun25-2019> <23:41:43>  NORMAL TERMINATION
 <Jun25-2019> <23:41:43>  END
 <Jun25-2019> <23:41:44>  ADF 2019  RunTime: Jun25-2019 23:41:44  Nodes: 1  Procs: 2
 <Jun25-2019> <23:41:44>  Ln
 <Jun25-2019> <23:41:44>  RunType   : SINGLE POINT
 <Jun25-2019> <23:41:44>  Net Charge: 2 (Nuclei minus Electrons)
 <Jun25-2019> <23:41:44>  Spin polar: 1 (Spin_A minus Spin_B electrons)
 <Jun25-2019> <23:41:44>  Symmetry  : ATOM
 <Jun25-2019> <23:41:44>  >>>> FRAGM
  Coordinates
    Atom         X           Y           Z   (Angstrom)
    1.La        0.000000    0.000000    0.000000
 <Jun25-2019> <23:41:44>  >>>> CORORT
 <Jun25-2019> <23:41:44>  >>>> FITINT
 <Jun25-2019> <23:41:44>  >>>> CLSMAT
 <Jun25-2019> <23:41:44>  >>>> ORTHON
 <Jun25-2019> <23:41:44>  >>>> GENPT
 <Jun25-2019> <23:41:44>  Block Length=  95
 <Jun25-2019> <23:41:44>  >>>> PTBAS
 <Jun25-2019> <23:41:44>  >>>> CYCLE
 <Jun25-2019> <23:41:45>  CalcFitR12Fit
 <Jun25-2019> <23:41:45>  CalcFitCoeff
 <Jun25-2019> <23:41:46>              |Error|         MaxErr       Wt(A-DIIS)
 <Jun25-2019> <23:41:46>      1      0.01302609      0.00179905
 <Jun25-2019> <23:41:46>      2      0.11811824      0.02175585    100.0
 <Jun25-2019> <23:41:47>      3      0.11307578      0.02089972    100.0
 <Jun25-2019> <23:41:47>      4      0.11489807      0.01618339     15.3
 <Jun25-2019> <23:41:47>      5      0.02119673      0.00254682      1.6
 <Jun25-2019> <23:41:47>      6      0.00236142      0.00038631      0.0
 <Jun25-2019> <23:41:47>      7      0.00051511      0.00007896      0.0
 <Jun25-2019> <23:41:47>      8      0.00004369      0.00001090      0.0
 <Jun25-2019> <23:41:47>      9      0.00000414      0.00000094      0.0
 <Jun25-2019> <23:41:47>  SCF converged
 <Jun25-2019> <23:41:47>     10      0.00000021      0.00000006      0.0
 <Jun25-2019> <23:41:48>  WARNING: partially occupied orbitals
 <Jun25-2019> <23:41:48>   Solutions with partially occupied orbitals may not be
 <Jun25-2019> <23:41:48>   lowest in energy. You might consider lowering the
 <Jun25-2019> <23:41:48>   symmetry in the input and explicitly specifying integer
 <Jun25-2019> <23:41:48>   occupations. In that case always check that you obtain
 <Jun25-2019> <23:41:48>   an aufbau solution.
 <Jun25-2019> <23:41:48>  >>>> TOTEN
 <Jun25-2019> <23:41:48>  >>>> POPAN
 <Jun25-2019> <23:41:48>  >>>> DEBYE
 <Jun25-2019> <23:41:48>  >>>> AMETS
 <Jun25-2019> <23:41:48>   Bond Energy           0.60335890 a.u.
 <Jun25-2019> <23:41:48>   Bond Energy          16.41823111 eV
 <Jun25-2019> <23:41:48>   Bond Energy         378.61       kcal/mol
 <Jun25-2019> <23:41:48>  >>>> POPUL
 <Jun25-2019> <23:41:48>  NORMAL TERMINATION with warnings
 <Jun25-2019> <23:41:48>  END
