 argument  1 = nw.inp




              Northwest Computational Chemistry Package (NWChem) 6.5
              ------------------------------------------------------


                    Environmental Molecular Sciences Laboratory
                       Pacific Northwest National Laboratory
                                Richland, WA 99352

                              Copyright (c) 1994-2014
                       Pacific Northwest National Laboratory
                            Battelle Memorial Institute

             NWChem is an open-source computational chemistry package
                        distributed under the terms of the
                      Educational Community License (ECL) 2.0
             A copy of the license is included with this distribution
                              in the LICENSE.TXT file

                                  ACKNOWLEDGMENT
                                  --------------

            This software and its documentation were developed at the
            EMSL at Pacific Northwest National Laboratory, a multiprogram
            national laboratory, operated for the U.S. Department of Energy
            by Battelle under Contract Number DE-AC05-76RL01830. Support
            for this work was provided by the Department of Energy Office
            of Biological and Environmental Research, Office of Basic
            Energy Sciences, and the Office of Advanced Scientific Computing.


           Job information
           ---------------

    hostname        = Xins-MacBook-Pro.local
    program         = nwchem
    date            = Thu Mar 31 11:26:59 2016

    compiled        = Mon_Aug_24_12:14:16_2015
    source          = /Users/bismarrck/Documents/Projects/Nwchem-6.5
    nwchem branch   = 6.5
    nwchem revision = 26243
    ga revision     = 10506
    input           = nw.inp
    prefix          = nw.
    data base       = ./perm/nw.db
    status          = startup
    nproc           =        4
    time left       =     -1s



           Memory information
           ------------------

    heap     =   13107196 doubles =    100.0 Mbytes
    stack    =   13107201 doubles =    100.0 Mbytes
    global   =   26214400 doubles =    200.0 Mbytes (distinct from heap & stack)
    total    =   52428797 doubles =    400.0 Mbytes
    verify   = yes
    hardfail = no


           Directory information
           ---------------------

  0 permanent = ./perm
  0 scratch   = ./scratch




                                NWChem Input Module
                                -------------------




 Summary of "ao basis" -> "" (cartesian)
 ------------------------------------------------------------------------------
       Tag                 Description            Shells   Functions and Types
 ---------------- ------------------------------  ------  ---------------------
 *                           6-311G                   on all atoms



 Scaling coordinates for geometry "geometry" by  1.889725989
 (inverse scale =  0.529177249)

 CS  symmetry detected

          ------
          auto-z
          ------
  Looking for out-of-plane bends


                             Geometry "geometry" -> ""
                             -------------------------

 Output coordinates in angstroms (scale by  1.889725989 to convert to a.u.)

  No.       Tag          Charge          X              Y              Z
 ---- ---------------- ---------- -------------- -------------- --------------
    1 C                    6.0000     0.04009142     0.03941104     0.00000000
    2 H                    1.0000    -0.01380080     0.65482077    -0.87365125
    3 H                    1.0000    -0.01380080     0.65482077     0.87365125
    4 H                    1.0000     0.56339002    -0.89389415     0.00000000
    5 H                    1.0000    -0.77633697    -0.65221363     0.00000000

      Atomic Mass
      -----------

      C                 12.000000
      H                  1.007825


 Effective nuclear repulsion energy (a.u.)      13.7327964348

            Nuclear Dipole moment (a.u.)
            ----------------------------
        X                 Y               Z
 ---------------- ---------------- ----------------
    -0.0000000000    -0.0000000000     0.0000000000

      Symmetry information
      --------------------

 Group name             Cs
 Group number              2
 Group order               2
 No. of unique centers     4

      Symmetry unique atoms

     1    2    4    5



                                Z-matrix (autoz)
                                --------

 Units are Angstrom for bonds and degrees for angles

      Type          Name      I     J     K     L     M      Value
      ----------- --------  ----- ----- ----- ----- ----- ----------
    1 Stretch                  1     2                       1.07000
    2 Stretch                  1     3                       1.07000
    3 Stretch                  1     4                       1.07000
    4 Stretch                  1     5                       1.07000
    5 Bend                     2     1     3               109.47120
    6 Bend                     2     1     4               121.75615
    7 Bend                     2     1     5               109.47122
    8 Bend                     3     1     4               121.75615
    9 Bend                     3     1     5               109.47122
   10 Bend                     4     1     5                79.01000


            XYZ format geometry
            -------------------
     5
 geometry
 C                     0.04009142     0.03941104     0.00000000
 H                    -0.01380080     0.65482077    -0.87365125
 H                    -0.01380080     0.65482077     0.87365125
 H                     0.56339002    -0.89389415     0.00000000
 H                    -0.77633697    -0.65221363     0.00000000

 ==============================================================================
                                internuclear distances
 ------------------------------------------------------------------------------
       center one      |      center two      | atomic units |  angstroms
 ------------------------------------------------------------------------------
    2 H                |   1 C                |     2.02201  |     1.07000
    3 H                |   1 C                |     2.02201  |     1.07000
    4 H                |   1 C                |     2.02201  |     1.07000
    5 H                |   1 C                |     2.02201  |     1.07000
 ------------------------------------------------------------------------------
                         number of included internuclear distances:          4
 ==============================================================================



 ==============================================================================
                                 internuclear angles
 ------------------------------------------------------------------------------
        center 1       |       center 2       |       center 3       |  degrees
 ------------------------------------------------------------------------------
    2 H                |   1 C                |   3 H                |   109.47
    2 H                |   1 C                |   4 H                |   121.76
    2 H                |   1 C                |   5 H                |   109.47
    3 H                |   1 C                |   4 H                |   121.76
    3 H                |   1 C                |   5 H                |   109.47
    4 H                |   1 C                |   5 H                |    79.01
 ------------------------------------------------------------------------------
                            number of included internuclear angles:          6
 ==============================================================================



                                        CH4
                                        ---


                           NWChem Geometry Optimization
                           ----------------------------




                                        CH4


 maximum gradient threshold         (gmax) =   0.000450
 rms gradient threshold             (grms) =   0.000300
 maximum cartesian step threshold   (xmax) =   0.001800
 rms cartesian step threshold       (xrms) =   0.001200
 fixed trust radius                (trust) =   0.300000
 maximum step size to saddle      (sadstp) =   0.100000
 energy precision                  (eprec) =   5.0D-06
 maximum number of steps          (nptopt) =   20
 initial hessian option           (inhess) =    0
 line search option               (linopt) =    1
 hessian update option            (modupd) =    1
 saddle point option              (modsad) =    0
 initial eigen-mode to follow     (moddir) =    0
 initial variable to follow       (vardir) =    0
 follow first negative mode     (firstneg) =    T
 apply conjugacy                    (opcg) =    F
 source of zmatrix                         =   autoz


          -------------------
          Energy Minimization
          -------------------


 Names of Z-matrix variables
    1              2              3              4              5
    6              7              8              9             10

 Variables with the same non-blank name are constrained to be equal


 Using diagonal initial Hessian
 Scaling for Hessian diagonals: bonds = 1.00  angles = 0.25  torsions = 0.10

          --------
          Step   0
          --------


                         Geometry "geometry" -> "geometry"
                         ---------------------------------

 Output coordinates in angstroms (scale by  1.889725989 to convert to a.u.)

  No.       Tag          Charge          X              Y              Z
 ---- ---------------- ---------- -------------- -------------- --------------
    1 C                    6.0000     0.04009142     0.03941104     0.00000000
    2 H                    1.0000    -0.01380080     0.65482077    -0.87365125
    3 H                    1.0000    -0.01380080     0.65482077     0.87365125
    4 H                    1.0000     0.56339002    -0.89389415     0.00000000
    5 H                    1.0000    -0.77633697    -0.65221363     0.00000000

      Atomic Mass
      -----------

      C                 12.000000
      H                  1.007825


 Effective nuclear repulsion energy (a.u.)      13.7327964348

            Nuclear Dipole moment (a.u.)
            ----------------------------
        X                 Y               Z
 ---------------- ---------------- ----------------
    -0.0000000000    -0.0000000000     0.0000000000

      Symmetry information
      --------------------

 Group name             Cs
 Group number              2
 Group order               2
 No. of unique centers     4

      Symmetry unique atoms

     1    2    4    5


                                 NWChem DFT Module
                                 -----------------


                                        CH4


                      Basis "ao basis" -> "ao basis" (cartesian)
                      -----
  C (Carbon)
  ----------
            Exponent  Coefficients
       -------------- ---------------------------------------------------------
  1 S  4.56324000E+03  0.001967
  1 S  6.82024000E+02  0.015231
  1 S  1.54973000E+02  0.076127
  1 S  4.44553000E+01  0.260801
  1 S  1.30290000E+01  0.616462
  1 S  1.82773000E+00  0.221006

  2 S  2.09642000E+01  0.114660
  2 S  4.80331000E+00  0.919999
  2 S  1.45933000E+00 -0.003031

  3 P  2.09642000E+01  0.040249
  3 P  4.80331000E+00  0.237594
  3 P  1.45933000E+00  0.815854

  4 S  4.83456000E-01  1.000000

  5 P  4.83456000E-01  1.000000

  6 S  1.45585000E-01  1.000000

  7 P  1.45585000E-01  1.000000

  H (Hydrogen)
  ------------
            Exponent  Coefficients
       -------------- ---------------------------------------------------------
  1 S  3.38650000E+01  0.025494
  1 S  5.09479000E+00  0.190373
  1 S  1.15879000E+00  0.852161

  2 S  3.25840000E-01  1.000000

  3 S  1.02741000E-01  1.000000



 Summary of "ao basis" -> "ao basis" (cartesian)
 ------------------------------------------------------------------------------
       Tag                 Description            Shells   Functions and Types
 ---------------- ------------------------------  ------  ---------------------
 C                           6-311G                  7       13   4s3p
 H                           6-311G                  3        3   3s




 Summary of "ao basis" -> "ao basis" (cartesian)
 ------------------------------------------------------------------------------
       Tag                 Description            Shells   Functions and Types
 ---------------- ------------------------------  ------  ---------------------
 C                           6-311G                  7       13   4s3p
 H                           6-311G                  3        3   3s


      Symmetry analysis of basis
      --------------------------

        a'         19
        a"          6

  Caching 1-el integrals

            General Information
            -------------------
          SCF calculation type: DFT
          Wavefunction type:  closed shell.
          No. of atoms     :     5
          No. of electrons :    10
           Alpha electrons :     5
            Beta electrons :     5
          Charge           :     0
          Spin multiplicity:     1
          Use of symmetry is: on ; symmetry adaption is: on
          Maximum number of iterations:  30
          AO basis - number of functions:    25
                     number of shells:    19
          Convergence on energy requested: 1.00D-06
          Convergence on density requested: 1.00D-05
          Convergence on gradient requested: 5.00D-04

              XC Information
              --------------
                         B3LYP Method XC Potential
                     Hartree-Fock (Exact) Exchange  0.200
                        Slater Exchange Functional  0.800 local
                    Becke 1988 Exchange Functional  0.720 non-local
              Lee-Yang-Parr Correlation Functional  0.810
                  VWN I RPA Correlation Functional  0.190 local

             Grid Information
             ----------------
          Grid used for XC integration:  medium
          Radial quadrature: Mura-Knowles
          Angular quadrature: Lebedev.
          Tag              B.-S. Rad. Rad. Pts. Rad. Cut. Ang. Pts.
          ---              ---------- --------- --------- ---------
          C                   0.70       49           6.0       434
          H                   0.35       45           8.0       434
          Grid pruning is: on
          Number of quadrature shells:   184
          Spatial weights used:  Erf1

          Convergence Information
          -----------------------
          Convergence aids based upon iterative change in
          total energy or number of iterations.
          Levelshifting, if invoked, occurs when the
          HOMO/LUMO gap drops below (HL_TOL): 1.00D-02
          DIIS, if invoked, will attempt to extrapolate
          using up to (NFOCK): 10 stored Fock matrices.

                    Damping( 0%)  Levelshifting(0.5)       DIIS
                  --------------- ------------------- ---------------
          dE  on:    start            ASAP                start
          dE off:    2 iters         30 iters            30 iters


      Screening Tolerance Information
      -------------------------------
          Density screening/tol_rho: 1.00D-10
          AO Gaussian exp screening on grid/accAOfunc:  14
          CD Gaussian exp screening on grid/accCDfunc:  20
          XC Gaussian exp screening on grid/accXCfunc:  20
          Schwarz screening/accCoul: 1.00D-08


      Superposition of Atomic Density Guess
      -------------------------------------

 Sum of atomic energies:         -39.66778975

      Non-variational initial energy
      ------------------------------

 Total energy =     -40.327355
 1-e energy   =     -78.766435
 2-e energy   =      24.706283
 HOMO         =      -0.428550
 LUMO         =       0.090778


      Symmetry analysis of molecular orbitals - initial
      -------------------------------------------------

  Numbering of irreducible representations:

     1 a'          2 a"

  Orbital symmetries:

     1 a'          2 a'          3 a'          4 a"          5 a'
     6 a'          7 a'          8 a"          9 a'         10 a'
    11 a"         12 a'         13 a'         14 a'         15 a"

   Time after variat. SCF:      0.2
   Time prior to 1st pass:      0.2

 #quartets = 1.192D+04 #integrals = 2.992D+04 #direct =  0.0% #cached =100.0%


 Integral file          = ./scratch/nw.aoints.0
 Record size in doubles =  65536        No. of integs per rec  =  43688
 Max. records in memory =      2        Max. records in file   =  43659
 No. of bits per label  =      8        No. of bits per value  =     64


File balance: exchanges=     0  moved=     0  time=   0.0


 Grid_pts file          = ./scratch/nw.gridpts.0
 Record size in doubles =  12289        No. of grid_pts per rec  =   3070
 Max. records in memory =      9        Max. recs in file   =    232835


           Memory utilization after 1st SCF pass:
           Heap Space remaining (MW):       12.86            12863764
          Stack Space remaining (MW):       13.11            13106892

   convergence    iter        energy       DeltaE   RMS-Dens  Diis-err    time
 ---------------- ----- ----------------- --------- --------- ---------  ------
 d= 0,ls=0.0,diis     1    -40.4756677183 -5.42D+01  9.58D-03  1.46D-01     0.3
 d= 0,ls=0.0,diis     2    -40.4870969807 -1.14D-02  4.54D-03  1.92D-02     0.4
 d= 0,ls=0.0,diis     3    -40.4879526401 -8.56D-04  2.09D-03  1.28D-02     0.4
 d= 0,ls=0.0,diis     4    -40.4895221491 -1.57D-03  1.48D-04  1.15D-05     0.5
 d= 0,ls=0.0,diis     5    -40.4895241695 -2.02D-06  2.62D-05  3.62D-07     0.5
 d= 0,ls=0.0,diis     6    -40.4895242395 -7.00D-08  1.75D-06  2.31D-09     0.6


         Total DFT energy =      -40.489524239503
      One electron energy =      -80.296950232436
           Coulomb energy =       33.001899128573
    Exchange-Corr. energy =       -6.927269570405
 Nuclear repulsion energy =       13.732796434765

 Numeric. integr. density =       10.000000406569

     Total iterative time =      0.4s



                  Occupations of the irreducible representations
                  ----------------------------------------------

                     irrep           alpha         beta
                     --------     --------     --------
                     a'                4.0          4.0
                     a"                1.0          1.0


                       DFT Final Molecular Orbital Analysis
                       ------------------------------------

 Vector    1  Occ=2.000000D+00  E=-1.014491D+01  Symmetry=a'
              MO Center=  4.0D-02,  3.9D-02,  1.6D-17, r^2= 2.8D-02
   Bfn.  Coefficient  Atom+Function         Bfn.  Coefficient  Atom+Function
  ----- ------------  ---------------      ----- ------------  ---------------
     1      0.562702  1 C  s                  2      0.463984  1 C  s

 Vector    2  Occ=2.000000D+00  E=-7.171289D-01  Symmetry=a'
              MO Center= -4.7D-02, -1.1D-01, -4.6D-17, r^2= 9.7D-01
   Bfn.  Coefficient  Atom+Function         Bfn.  Coefficient  Atom+Function
  ----- ------------  ---------------      ----- ------------  ---------------
     6      0.458292  1 C  s                 10      0.306084  1 C  s
     2     -0.171082  1 C  s

 Vector    3  Occ=2.000000D+00  E=-4.535950D-01  Symmetry=a'
              MO Center=  4.3D-02,  6.6D-02, -1.1D-17, r^2= 1.3D+00
   Bfn.  Coefficient  Atom+Function         Bfn.  Coefficient  Atom+Function
  ----- ------------  ---------------      ----- ------------  ---------------
     8      0.305966  1 C  py                 4      0.199734  1 C  py
    12      0.165230  1 C  py                21     -0.165148  4 H  s

 Vector    4  Occ=2.000000D+00  E=-4.012109D-01  Symmetry=a"
              MO Center=  1.6D-02,  3.2D-01,  9.4D-17, r^2= 1.2D+00
   Bfn.  Coefficient  Atom+Function         Bfn.  Coefficient  Atom+Function
  ----- ------------  ---------------      ----- ------------  ---------------
     9      0.313217  1 C  pz                13      0.210598  1 C  pz
     5      0.206432  1 C  pz                15     -0.193723  2 H  s
    18      0.193723  3 H  s                 14     -0.154946  2 H  s
    17      0.154946  3 H  s

 Vector    5  Occ=2.000000D+00  E=-3.391175D-01  Symmetry=a'
              MO Center= -2.2D-02, -2.9D-01, -7.9D-19, r^2= 1.2D+00
   Bfn.  Coefficient  Atom+Function         Bfn.  Coefficient  Atom+Function
  ----- ------------  ---------------      ----- ------------  ---------------
     7      0.316542  1 C  px                11      0.238568  1 C  px
    24     -0.228189  5 H  s                  3      0.210451  1 C  px
    21      0.194082  4 H  s                 25     -0.159792  5 H  s
    23     -0.158474  5 H  s

 Vector    6  Occ=0.000000D+00  E= 5.156923D-02  Symmetry=a'
              MO Center= -1.3D-01, -2.9D-01, -3.4D-14, r^2= 4.8D+00
   Bfn.  Coefficient  Atom+Function         Bfn.  Coefficient  Atom+Function
  ----- ------------  ---------------      ----- ------------  ---------------
    10      2.059990  1 C  s                 22     -0.802929  4 H  s
    25     -0.780781  5 H  s                 16     -0.671078  2 H  s
    19     -0.671078  3 H  s                  6      0.188306  1 C  s

 Vector    7  Occ=0.000000D+00  E= 1.190850D-01  Symmetry=a'
              MO Center= -2.1D-01,  5.3D-03,  3.1D-14, r^2= 5.3D+00
   Bfn.  Coefficient  Atom+Function         Bfn.  Coefficient  Atom+Function
  ----- ------------  ---------------      ----- ------------  ---------------
    25     -1.321435  5 H  s                 16      1.274313  2 H  s
    19      1.274313  3 H  s                 12     -1.122094  1 C  py
    22     -0.933029  4 H  s                 11     -0.219314  1 C  px
     8     -0.201100  1 C  py                10     -0.195772  1 C  s
     4     -0.152021  1 C  py

 Vector    8  Occ=0.000000D+00  E= 1.250092D-01  Symmetry=a'
              MO Center=  3.6D-02, -9.1D-01, -4.4D-14, r^2= 3.8D+00
   Bfn.  Coefficient  Atom+Function         Bfn.  Coefficient  Atom+Function
  ----- ------------  ---------------      ----- ------------  ---------------
    22      1.988765  4 H  s                 25     -1.753005  5 H  s
    11     -1.068061  1 C  px                12      0.274797  1 C  py
     7     -0.210914  1 C  px                16     -0.168926  2 H  s
    19     -0.168926  3 H  s                  3     -0.162210  1 C  px

 Vector    9  Occ=0.000000D+00  E= 1.260116D-01  Symmetry=a"
              MO Center= -3.7D-02,  9.2D-01,  4.4D-14, r^2= 4.3D+00
   Bfn.  Coefficient  Atom+Function         Bfn.  Coefficient  Atom+Function
  ----- ------------  ---------------      ----- ------------  ---------------
    16      1.794768  2 H  s                 19     -1.794768  3 H  s
    13      1.189678  1 C  pz                 9      0.214457  1 C  pz
     5      0.162192  1 C  pz

 Vector   10  Occ=0.000000D+00  E= 2.699570D-01  Symmetry=a'
              MO Center=  2.4D-01, -1.2D-01, -1.3D-15, r^2= 3.4D+00
   Bfn.  Coefficient  Atom+Function         Bfn.  Coefficient  Atom+Function
  ----- ------------  ---------------      ----- ------------  ---------------
    24      1.093640  5 H  s                 25     -0.887083  5 H  s
    22      0.853534  4 H  s                 11      0.783425  1 C  px
    21     -0.775354  4 H  s                 12      0.273495  1 C  py
    15     -0.253434  2 H  s                 18     -0.253434  3 H  s
    16      0.161892  2 H  s                 19      0.161892  3 H  s

 Vector   11  Occ=0.000000D+00  E= 2.779954D-01  Symmetry=a"
              MO Center=  5.7D-02, -1.5D-01,  4.1D-15, r^2= 2.9D+00
   Bfn.  Coefficient  Atom+Function         Bfn.  Coefficient  Atom+Function
  ----- ------------  ---------------      ----- ------------  ---------------
    13      1.406114  1 C  pz                15      1.068878  2 H  s
    18     -1.068878  3 H  s                 16     -0.248516  2 H  s
    19      0.248516  3 H  s

 Vector   12  Occ=0.000000D+00  E= 3.201276D-01  Symmetry=a'
              MO Center= -6.9D-02,  4.1D-01,  3.3D-16, r^2= 2.6D+00
   Bfn.  Coefficient  Atom+Function         Bfn.  Coefficient  Atom+Function
  ----- ------------  ---------------      ----- ------------  ---------------
    12      2.143731  1 C  py                21      1.228077  4 H  s
    15     -0.800389  2 H  s                 18     -0.800389  3 H  s
    24      0.551463  5 H  s                 25      0.255599  5 H  s
    10     -0.225744  1 C  s                 22      0.224081  4 H  s
    11     -0.222266  1 C  px                16     -0.161506  2 H  s

 Vector   13  Occ=0.000000D+00  E= 5.054406D-01  Symmetry=a'
              MO Center= -1.9D-01,  3.8D-02, -2.4D-16, r^2= 2.5D+00
   Bfn.  Coefficient  Atom+Function         Bfn.  Coefficient  Atom+Function
  ----- ------------  ---------------      ----- ------------  ---------------
    10      2.561959  1 C  s                 24     -1.370567  5 H  s
    21     -1.155554  4 H  s                 15     -1.143471  2 H  s
    18     -1.143471  3 H  s                 11     -0.690156  1 C  px
    12     -0.591593  1 C  py                25     -0.406657  5 H  s
    16      0.282605  2 H  s                 19      0.282605  3 H  s

 Vector   14  Occ=0.000000D+00  E= 5.850280D-01  Symmetry=a'
              MO Center= -1.9D-01, -2.8D-01, -4.3D-16, r^2= 2.8D+00
   Bfn.  Coefficient  Atom+Function         Bfn.  Coefficient  Atom+Function
  ----- ------------  ---------------      ----- ------------  ---------------
    25      1.995769  5 H  s                 11      1.562277  1 C  px
    22     -1.337670  4 H  s                  7     -1.021484  1 C  px
    24     -0.785260  5 H  s                 21      0.297227  4 H  s
     3     -0.264737  1 C  px                16     -0.194330  2 H  s
    19     -0.194330  3 H  s                 12      0.178886  1 C  py

 Vector   15  Occ=0.000000D+00  E= 5.999702D-01  Symmetry=a"
              MO Center=  1.0D-02,  3.8D-01,  1.8D-14, r^2= 2.8D+00
   Bfn.  Coefficient  Atom+Function         Bfn.  Coefficient  Atom+Function
  ----- ------------  ---------------      ----- ------------  ---------------
    13      1.719962  1 C  pz                16      1.623617  2 H  s
    19     -1.623617  3 H  s                  9     -1.084744  1 C  pz
    15     -0.558898  2 H  s                 18      0.558898  3 H  s
     5     -0.275669  1 C  pz


 center of mass
 --------------
 x =   0.02813333 y =   0.02765588 z =   0.00000000

 moments of inertia (a.u.)
 ------------------
          13.041472864653           0.000000000002           0.000000000000
           0.000000000002           8.863038763827           0.000000000000
           0.000000000000           0.000000000000          10.916503004104

     Multipole analysis of the density
     ---------------------------------

     L   x y z        total         alpha         beta         nuclear
     -   - - -        -----         -----         ----         -------
     0   0 0 0     -0.000000     -5.000000     -5.000000     10.000000

     1   1 0 0     -0.111775     -0.055888     -0.055888     -0.000000
     1   0 1 0     -0.101835     -0.050918     -0.050918     -0.000000
     1   0 0 1      0.000000      0.000000      0.000000      0.000000

     2   2 0 0     -7.180245     -5.250904     -5.250904      3.321562
     2   1 1 0     -0.008807      0.006073      0.006073     -0.020953
     2   1 0 1      0.000000      0.000000      0.000000      0.000000
     2   0 2 0     -5.556942     -6.512607     -6.512607      7.468271
     2   0 1 1      0.000000      0.000000      0.000000      0.000000
     2   0 0 2     -6.227763     -5.839555     -5.839555      5.451348


 Parallel integral file used       4 records with       0 large values



                            NWChem DFT Gradient Module
                            --------------------------


                                        CH4



  charge          =   0.00
  wavefunction    = closed shell

  Using symmetry


                         DFT ENERGY GRADIENTS

    atom               coordinates                        gradient
                 x          y          z           x          y          z
   1 C       0.075762   0.074476   0.000000    0.027598   0.020363   0.000000
   2 H      -0.026080   1.237432  -1.650961   -0.010281   0.002427   0.012493
   3 H      -0.026080   1.237432   1.650961   -0.010281   0.002427  -0.012493
   4 H       1.064653  -1.689215   0.000000   -0.059424  -0.010263   0.000000
   5 H      -1.467064  -1.232505   0.000000    0.052388  -0.014955   0.000000

                 ----------------------------------------
                 |  Time  |  1-e(secs)   |  2-e(secs)   |
                 ----------------------------------------
                 |  CPU   |       0.00   |       0.05   |
                 ----------------------------------------
                 |  WALL  |       0.00   |       0.06   |
                 ----------------------------------------

@ Step       Energy      Delta E   Gmax     Grms     Xrms     Xmax   Walltime
@ ---- ---------------- -------- -------- -------- -------- -------- --------
@    0     -40.48952424  0.0D+00  0.05204  0.02166  0.00000  0.00000      1.1




                                Z-matrix (autoz)
                                --------

 Units are Angstrom for bonds and degrees for angles

      Type          Name      I     J     K     L     M      Value     Gradient
      ----------- --------  ----- ----- ----- ----- ----- ---------- ----------
    1 Stretch                  1     2                       1.07000   -0.00829
    2 Stretch                  1     3                       1.07000   -0.00829
    3 Stretch                  1     4                       1.07000   -0.02011
    4 Stretch                  1     5                       1.07000   -0.03031
    5 Bend                     2     1     3               109.47120    0.00137
    6 Bend                     2     1     4               121.75615    0.01575
    7 Bend                     2     1     5               109.47122   -0.00360
    8 Bend                     3     1     4               121.75615    0.01575
    9 Bend                     3     1     5               109.47122   -0.00360
   10 Bend                     4     1     5                79.01000   -0.05204

 Restricting large step in mode    4 eval= 5.1D-02 step= 3.3D-01 new= 3.0D-01
 Restricting large step in mode    5 eval= 5.1D-02 step= 1.0D+00 new= 3.0D-01
 Restricting overall step due to large component. alpha=  0.92

                                 NWChem DFT Module
                                 -----------------


                                        CH4




 Summary of "ao basis" -> "ao basis" (cartesian)
 ------------------------------------------------------------------------------
       Tag                 Description            Shells   Functions and Types
 ---------------- ------------------------------  ------  ---------------------
 C                           6-311G                  7       13   4s3p
 H                           6-311G                  3        3   3s


      Symmetry analysis of basis
      --------------------------

        a'         19
        a"          6

  Caching 1-el integrals

            General Information
            -------------------
          SCF calculation type: DFT
          Wavefunction type:  closed shell.
          No. of atoms     :     5
          No. of electrons :    10
           Alpha electrons :     5
            Beta electrons :     5
          Charge           :     0
          Spin multiplicity:     1
          Use of symmetry is: on ; symmetry adaption is: on
          Maximum number of iterations:  30
          AO basis - number of functions:    25
                     number of shells:    19
          Convergence on energy requested: 1.00D-06
          Convergence on density requested: 1.00D-05
          Convergence on gradient requested: 5.00D-04

              XC Information
              --------------
                         B3LYP Method XC Potential
                     Hartree-Fock (Exact) Exchange  0.200
                        Slater Exchange Functional  0.800 local
                    Becke 1988 Exchange Functional  0.720 non-local
              Lee-Yang-Parr Correlation Functional  0.810
                  VWN I RPA Correlation Functional  0.190 local

             Grid Information
             ----------------
          Grid used for XC integration:  medium
          Radial quadrature: Mura-Knowles
          Angular quadrature: Lebedev.
          Tag              B.-S. Rad. Rad. Pts. Rad. Cut. Ang. Pts.
          ---              ---------- --------- --------- ---------
          C                   0.70       49           6.0       434
          H                   0.35       45           8.0       434
          Grid pruning is: on
          Number of quadrature shells:   184
          Spatial weights used:  Erf1

          Convergence Information
          -----------------------
          Convergence aids based upon iterative change in
          total energy or number of iterations.
          Levelshifting, if invoked, occurs when the
          HOMO/LUMO gap drops below (HL_TOL): 1.00D-02
          DIIS, if invoked, will attempt to extrapolate
          using up to (NFOCK): 10 stored Fock matrices.

                    Damping( 0%)  Levelshifting(0.5)       DIIS
                  --------------- ------------------- ---------------
          dE  on:    start            ASAP                start
          dE off:    2 iters         30 iters            30 iters


      Screening Tolerance Information
      -------------------------------
          Density screening/tol_rho: 1.00D-10
          AO Gaussian exp screening on grid/accAOfunc:  14
          CD Gaussian exp screening on grid/accCDfunc:  20
          XC Gaussian exp screening on grid/accXCfunc:  20
          Schwarz screening/accCoul: 1.00D-08


 Loading old vectors from job with title :

CH4


      Symmetry analysis of molecular orbitals - initial
      -------------------------------------------------

  Numbering of irreducible representations:

     1 a'          2 a"

  Orbital symmetries:

     1 a'          2 a'          3 a'          4 a"          5 a'
     6 a'          7 a'          8 a'          9 a"         10 a'
    11 a"         12 a'         13 a'         14 a'         15 a"

   Time after variat. SCF:      1.0
   Time prior to 1st pass:      1.0

 #quartets = 1.192D+04 #integrals = 2.992D+04 #direct =  0.0% #cached =100.0%


 Integral file          = ./scratch/nw.aoints.0
 Record size in doubles =  65536        No. of integs per rec  =  43688
 Max. records in memory =      2        Max. records in file   =  43657
 No. of bits per label  =      8        No. of bits per value  =     64


File balance: exchanges=     0  moved=     0  time=   0.0


 Grid_pts file          = ./scratch/nw.gridpts.0
 Record size in doubles =  12289        No. of grid_pts per rec  =   3070
 Max. records in memory =      9        Max. recs in file   =    232825


           Memory utilization after 1st SCF pass:
           Heap Space remaining (MW):       12.86            12863764
          Stack Space remaining (MW):       13.11            13106892

   convergence    iter        energy       DeltaE   RMS-Dens  Diis-err    time
 ---------------- ----- ----------------- --------- --------- ---------  ------
 d= 0,ls=0.0,diis     1    -40.5052096954 -5.39D+01  3.75D-03  1.32D-02     1.1
 d= 0,ls=0.0,diis     2    -40.5073287118 -2.12D-03  9.20D-04  5.16D-04     1.2
 d= 0,ls=0.0,diis     3    -40.5073241206  4.59D-06  4.29D-04  6.07D-04     1.2
 d= 0,ls=0.0,diis     4    -40.5073993255 -7.52D-05  4.15D-05  1.01D-06     1.3
 d= 0,ls=0.0,diis     5    -40.5073994995 -1.74D-07  6.78D-06  2.54D-08     1.3


         Total DFT energy =      -40.507399499460
      One electron energy =      -79.751620220287
           Coulomb energy =       32.720418704259
    Exchange-Corr. energy =       -6.897196572990
 Nuclear repulsion energy =       13.420998589559

 Numeric. integr. density =        9.999998920974

     Total iterative time =      0.4s



                  Occupations of the irreducible representations
                  ----------------------------------------------

                     irrep           alpha         beta
                     --------     --------     --------
                     a'                4.0          4.0
                     a"                1.0          1.0


                       DFT Final Molecular Orbital Analysis
                       ------------------------------------

 Vector    1  Occ=2.000000D+00  E=-1.015343D+01  Symmetry=a'
              MO Center= -2.0D-02,  2.9D-02, -6.7D-18, r^2= 2.8D-02
   Bfn.  Coefficient  Atom+Function         Bfn.  Coefficient  Atom+Function
  ----- ------------  ---------------      ----- ------------  ---------------
     1      0.562779  1 C  s                  2      0.463994  1 C  s

 Vector    2  Occ=2.000000D+00  E=-7.024846D-01  Symmetry=a'
              MO Center= -3.5D-02, -5.1D-02,  9.8D-17, r^2= 1.0D+00
   Bfn.  Coefficient  Atom+Function         Bfn.  Coefficient  Atom+Function
  ----- ------------  ---------------      ----- ------------  ---------------
     6      0.462162  1 C  s                 10      0.332540  1 C  s
     2     -0.172575  1 C  s

 Vector    3  Occ=2.000000D+00  E=-4.333193D-01  Symmetry=a'
              MO Center= -9.6D-03,  2.0D-02,  4.8D-18, r^2= 1.3D+00
   Bfn.  Coefficient  Atom+Function         Bfn.  Coefficient  Atom+Function
  ----- ------------  ---------------      ----- ------------  ---------------
     8      0.307884  1 C  py                 4      0.199563  1 C  py
    12      0.184551  1 C  py

 Vector    4  Occ=2.000000D+00  E=-3.995335D-01  Symmetry=a"
              MO Center=  1.6D-03,  3.1D-01,  5.3D-17, r^2= 1.2D+00
   Bfn.  Coefficient  Atom+Function         Bfn.  Coefficient  Atom+Function
  ----- ------------  ---------------      ----- ------------  ---------------
     9      0.311342  1 C  pz                13      0.208478  1 C  pz
     5      0.205558  1 C  pz                15     -0.196728  2 H  s
    18      0.196728  3 H  s                 14     -0.154119  2 H  s
    17      0.154119  3 H  s

 Vector    5  Occ=2.000000D+00  E=-3.542865D-01  Symmetry=a'
              MO Center= -8.3D-02, -3.2D-01, -9.4D-19, r^2= 1.3D+00
   Bfn.  Coefficient  Atom+Function         Bfn.  Coefficient  Atom+Function
  ----- ------------  ---------------      ----- ------------  ---------------
     7      0.311412  1 C  px                11      0.226868  1 C  px
    24     -0.216590  5 H  s                  3      0.204909  1 C  px
    21      0.203624  4 H  s                 23     -0.151286  5 H  s

 Vector    6  Occ=0.000000D+00  E= 5.096521D-02  Symmetry=a'
              MO Center= -7.6D-02, -2.1D-01,  8.8D-17, r^2= 4.9D+00
   Bfn.  Coefficient  Atom+Function         Bfn.  Coefficient  Atom+Function
  ----- ------------  ---------------      ----- ------------  ---------------
    10      2.028427  1 C  s                 25     -0.775449  5 H  s
    22     -0.761515  4 H  s                 16     -0.691573  2 H  s
    19     -0.691573  3 H  s                  6      0.192882  1 C  s

 Vector    7  Occ=0.000000D+00  E= 1.192521D-01  Symmetry=a'
              MO Center= -7.8D-01, -3.6D-01, -1.7D-16, r^2= 4.2D+00
   Bfn.  Coefficient  Atom+Function         Bfn.  Coefficient  Atom+Function
  ----- ------------  ---------------      ----- ------------  ---------------
    25      1.999030  5 H  s                 16     -0.886352  2 H  s
    19     -0.886352  3 H  s                 11      0.860462  1 C  px
    12      0.717610  1 C  py                22     -0.421623  4 H  s
     7      0.178026  1 C  px

 Vector    8  Occ=0.000000D+00  E= 1.209555D-01  Symmetry=a'
              MO Center=  6.3D-01, -5.5D-01,  6.1D-14, r^2= 4.3D+00
   Bfn.  Coefficient  Atom+Function         Bfn.  Coefficient  Atom+Function
  ----- ------------  ---------------      ----- ------------  ---------------
    22      2.049595  4 H  s                 12      0.899340  1 C  py
    16     -0.894094  2 H  s                 19     -0.894094  3 H  s
    11     -0.689627  1 C  px                25     -0.403885  5 H  s
     8      0.165999  1 C  py

 Vector    9  Occ=0.000000D+00  E= 1.246175D-01  Symmetry=a"
              MO Center=  4.7D-02,  9.1D-01, -5.8D-14, r^2= 4.3D+00
   Bfn.  Coefficient  Atom+Function         Bfn.  Coefficient  Atom+Function
  ----- ------------  ---------------      ----- ------------  ---------------
    16      1.765118  2 H  s                 19     -1.765118  3 H  s
    13      1.179865  1 C  pz                 9      0.216586  1 C  pz
     5      0.164734  1 C  pz

 Vector   10  Occ=0.000000D+00  E= 2.689757D-01  Symmetry=a'
              MO Center= -1.2D-02, -1.2D-01, -1.6D-18, r^2= 3.4D+00
   Bfn.  Coefficient  Atom+Function         Bfn.  Coefficient  Atom+Function
  ----- ------------  ---------------      ----- ------------  ---------------
    24      1.019321  5 H  s                 21     -0.946561  4 H  s
    11      0.885676  1 C  px                25     -0.793871  5 H  s
    22      0.739724  4 H  s

 Vector   11  Occ=0.000000D+00  E= 2.780988D-01  Symmetry=a"
              MO Center= -3.4D-02, -1.5D-01,  2.2D-15, r^2= 3.0D+00
   Bfn.  Coefficient  Atom+Function         Bfn.  Coefficient  Atom+Function
  ----- ------------  ---------------      ----- ------------  ---------------
    13      1.384601  1 C  pz                15      1.066772  2 H  s
    18     -1.066772  3 H  s                 16     -0.274510  2 H  s
    19      0.274510  3 H  s

 Vector   12  Occ=0.000000D+00  E= 3.070807D-01  Symmetry=a'
              MO Center= -3.1D-02,  3.6D-01, -1.9D-15, r^2= 2.7D+00
   Bfn.  Coefficient  Atom+Function         Bfn.  Coefficient  Atom+Function
  ----- ------------  ---------------      ----- ------------  ---------------
    12      1.868318  1 C  py                21      0.882443  4 H  s
    15     -0.862924  2 H  s                 18     -0.862924  3 H  s
    24      0.740539  5 H  s

 Vector   13  Occ=0.000000D+00  E= 5.123429D-01  Symmetry=a'
              MO Center= -6.9D-02, -9.9D-02,  3.2D-16, r^2= 2.6D+00
   Bfn.  Coefficient  Atom+Function         Bfn.  Coefficient  Atom+Function
  ----- ------------  ---------------      ----- ------------  ---------------
    10      1.986941  1 C  s                 24     -1.279725  5 H  s
    21     -1.241102  4 H  s                 15     -1.039106  2 H  s
    18     -1.039106  3 H  s                 12     -0.484467  1 C  py
     6      0.383572  1 C  s                 16      0.279244  2 H  s
    19      0.279244  3 H  s

 Vector   14  Occ=0.000000D+00  E= 5.773218D-01  Symmetry=a'
              MO Center= -1.5D-01, -2.8D-01, -6.2D-17, r^2= 2.9D+00
   Bfn.  Coefficient  Atom+Function         Bfn.  Coefficient  Atom+Function
  ----- ------------  ---------------      ----- ------------  ---------------
    25      1.761860  5 H  s                 11      1.675801  1 C  px
    22     -1.439976  4 H  s                  7     -1.031102  1 C  px
    24     -0.500461  5 H  s                 21      0.473322  4 H  s
     3     -0.270385  1 C  px

 Vector   15  Occ=0.000000D+00  E= 5.954187D-01  Symmetry=a"
              MO Center=  5.4D-03,  3.6D-01, -4.9D-14, r^2= 2.8D+00
   Bfn.  Coefficient  Atom+Function         Bfn.  Coefficient  Atom+Function
  ----- ------------  ---------------      ----- ------------  ---------------
    13      1.723472  1 C  pz                16      1.601863  2 H  s
    19     -1.601863  3 H  s                  9     -1.076827  1 C  pz
    15     -0.540934  2 H  s                 18      0.540934  3 H  s
     5     -0.276995  1 C  pz


 center of mass
 --------------
 x =  -0.04988668 y =   0.01371872 z =   0.00000000

 moments of inertia (a.u.)
 ------------------
          12.925282566240          -0.300153922190           0.000000000000
          -0.300153922190           9.863630382975           0.000000000000
           0.000000000000           0.000000000000          11.537315925713

     Multipole analysis of the density
     ---------------------------------

     L   x y z        total         alpha         beta         nuclear
     -   - - -        -----         -----         ----         -------
     0   0 0 0     -0.000000     -5.000000     -5.000000     10.000000

     1   1 0 0     -0.013843      0.277545      0.277545     -0.568933
     1   0 1 0     -0.061408      0.020112      0.020112     -0.101632
     1   0 0 1     -0.000000     -0.000000     -0.000000      0.000000

     2   2 0 0     -6.941242     -5.588608     -5.588608      4.235975
     2   1 1 0      0.093194     -0.102953     -0.102953      0.299099
     2   1 0 1      0.000000      0.000000      0.000000      0.000000
     2   0 2 0     -5.798997     -6.513740     -6.513740      7.228483
     2   0 1 1     -0.000000     -0.000000     -0.000000      0.000000
     2   0 0 2     -6.293683     -5.937901     -5.937901      5.582118


 Parallel integral file used       4 records with       0 large values

 Line search:
     step= 0.92 grad=-2.8D-02 hess= 9.8D-03 energy=    -40.507399 mode=downhill
 new step= 1.44                   predicted energy=    -40.510080

          --------
          Step   1
          --------


                         Geometry "geometry" -> "geometry"
                         ---------------------------------

 Output coordinates in angstroms (scale by  1.889725989 to convert to a.u.)

  No.       Tag          Charge          X              Y              Z
 ---- ---------------- ---------- -------------- -------------- --------------
    1 C                    6.0000    -0.04898665     0.02271217     0.00000000
    2 H                    1.0000     0.04887361     0.64316478    -0.88787611
    3 H                    1.0000     0.04887361     0.64316478     0.88787611
    4 H                    1.0000     0.68219500    -0.81602066     0.00000000
    5 H                    1.0000    -0.93141270    -0.69007628     0.00000000

      Atomic Mass
      -----------

      C                 12.000000
      H                  1.007825


 Effective nuclear repulsion energy (a.u.)      13.2606709496

            Nuclear Dipole moment (a.u.)
            ----------------------------
        X                 Y               Z
 ---------------- ---------------- ----------------
    -0.8416657416    -0.1577814626     0.0000000000

      Symmetry information
      --------------------

 Group name             Cs
 Group number              2
 Group order               2
 No. of unique centers     4

      Symmetry unique atoms

     1    2    4    5


                                 NWChem DFT Module
                                 -----------------


                                        CH4




 Summary of "ao basis" -> "ao basis" (cartesian)
 ------------------------------------------------------------------------------
       Tag                 Description            Shells   Functions and Types
 ---------------- ------------------------------  ------  ---------------------
 C                           6-311G                  7       13   4s3p
 H                           6-311G                  3        3   3s


      Symmetry analysis of basis
      --------------------------

        a'         19
        a"          6

  Caching 1-el integrals

            General Information
            -------------------
          SCF calculation type: DFT
          Wavefunction type:  closed shell.
          No. of atoms     :     5
          No. of electrons :    10
           Alpha electrons :     5
            Beta electrons :     5
          Charge           :     0
          Spin multiplicity:     1
          Use of symmetry is: on ; symmetry adaption is: on
          Maximum number of iterations:  30
          AO basis - number of functions:    25
                     number of shells:    19
          Convergence on energy requested: 1.00D-06
          Convergence on density requested: 1.00D-05
          Convergence on gradient requested: 5.00D-04

              XC Information
              --------------
                         B3LYP Method XC Potential
                     Hartree-Fock (Exact) Exchange  0.200
                        Slater Exchange Functional  0.800 local
                    Becke 1988 Exchange Functional  0.720 non-local
              Lee-Yang-Parr Correlation Functional  0.810
                  VWN I RPA Correlation Functional  0.190 local

             Grid Information
             ----------------
          Grid used for XC integration:  medium
          Radial quadrature: Mura-Knowles
          Angular quadrature: Lebedev.
          Tag              B.-S. Rad. Rad. Pts. Rad. Cut. Ang. Pts.
          ---              ---------- --------- --------- ---------
          C                   0.70       49           6.0       434
          H                   0.35       45           8.0       434
          Grid pruning is: on
          Number of quadrature shells:   184
          Spatial weights used:  Erf1

          Convergence Information
          -----------------------
          Convergence aids based upon iterative change in
          total energy or number of iterations.
          Levelshifting, if invoked, occurs when the
          HOMO/LUMO gap drops below (HL_TOL): 1.00D-02
          DIIS, if invoked, will attempt to extrapolate
          using up to (NFOCK): 10 stored Fock matrices.

                    Damping( 0%)  Levelshifting(0.5)       DIIS
                  --------------- ------------------- ---------------
          dE  on:    start            ASAP                start
          dE off:    2 iters         30 iters            30 iters


      Screening Tolerance Information
      -------------------------------
          Density screening/tol_rho: 1.00D-10
          AO Gaussian exp screening on grid/accAOfunc:  14
          CD Gaussian exp screening on grid/accCDfunc:  20
          XC Gaussian exp screening on grid/accXCfunc:  20
          Schwarz screening/accCoul: 1.00D-08


 Loading old vectors from job with title :

CH4


      Symmetry analysis of molecular orbitals - initial
      -------------------------------------------------

  Numbering of irreducible representations:

     1 a'          2 a"

  Orbital symmetries:

     1 a'          2 a'          3 a'          4 a"          5 a'
     6 a'          7 a'          8 a'          9 a"         10 a'
    11 a"         12 a'         13 a'         14 a'         15 a"

   Time after variat. SCF:      1.5
   Time prior to 1st pass:      1.5

 #quartets = 1.192D+04 #integrals = 2.992D+04 #direct =  0.0% #cached =100.0%


 Integral file          = ./scratch/nw.aoints.0
 Record size in doubles =  65536        No. of integs per rec  =  43688
 Max. records in memory =      2        Max. records in file   =  43657
 No. of bits per label  =      8        No. of bits per value  =     64


File balance: exchanges=     0  moved=     0  time=   0.0


 Grid_pts file          = ./scratch/nw.gridpts.0
 Record size in doubles =  12289        No. of grid_pts per rec  =   3070
 Max. records in memory =      9        Max. recs in file   =    232825


           Memory utilization after 1st SCF pass:
           Heap Space remaining (MW):       12.86            12863764
          Stack Space remaining (MW):       13.11            13106892

   convergence    iter        energy       DeltaE   RMS-Dens  Diis-err    time
 ---------------- ----- ----------------- --------- --------- ---------  ------
 d= 0,ls=0.0,diis     1    -40.5107621353 -5.38D+01  1.64D-03  2.93D-03     1.6
 d= 0,ls=0.0,diis     2    -40.5111877680 -4.26D-04  6.40D-04  3.46D-04     1.7
 d= 0,ls=0.0,diis     3    -40.5111982123 -1.04D-05  2.84D-04  2.80D-04     1.7
 d= 0,ls=0.0,diis     4    -40.5112331322 -3.49D-05  2.23D-05  2.49D-07     1.8
 d= 0,ls=0.0,diis     5    -40.5112331811 -4.88D-08  3.35D-06  6.63D-09     1.8


         Total DFT energy =      -40.511233181053
      One electron energy =      -79.459292946175
           Coulomb energy =       32.567234851387
    Exchange-Corr. energy =       -6.879846035871
 Nuclear repulsion energy =       13.260670949607

 Numeric. integr. density =        9.999999528855

     Total iterative time =      0.4s



                  Occupations of the irreducible representations
                  ----------------------------------------------

                     irrep           alpha         beta
                     --------     --------     --------
                     a'                4.0          4.0
                     a"                1.0          1.0


                       DFT Final Molecular Orbital Analysis
                       ------------------------------------

 Vector    1  Occ=2.000000D+00  E=-1.015855D+01  Symmetry=a'
              MO Center= -4.9D-02,  2.3D-02, -2.1D-17, r^2= 2.8D-02
   Bfn.  Coefficient  Atom+Function         Bfn.  Coefficient  Atom+Function
  ----- ------------  ---------------      ----- ------------  ---------------
     1      0.562819  1 C  s                  2      0.463999  1 C  s

 Vector    2  Occ=2.000000D+00  E=-6.972045D-01  Symmetry=a'
              MO Center= -2.8D-02, -2.7D-02,  8.3D-17, r^2= 1.0D+00
   Bfn.  Coefficient  Atom+Function         Bfn.  Coefficient  Atom+Function
  ----- ------------  ---------------      ----- ------------  ---------------
     6      0.462439  1 C  s                 10      0.343095  1 C  s
     2     -0.172709  1 C  s

 Vector    3  Occ=2.000000D+00  E=-4.229014D-01  Symmetry=a'
              MO Center= -6.3D-02, -6.8D-03, -2.1D-17, r^2= 1.3D+00
   Bfn.  Coefficient  Atom+Function         Bfn.  Coefficient  Atom+Function
  ----- ------------  ---------------      ----- ------------  ---------------
     8      0.305496  1 C  py                 4      0.197724  1 C  py
    12      0.190638  1 C  py

 Vector    4  Occ=2.000000D+00  E=-3.983691D-01  Symmetry=a"
              MO Center= -3.9D-03,  3.1D-01, -2.2D-16, r^2= 1.2D+00
   Bfn.  Coefficient  Atom+Function         Bfn.  Coefficient  Atom+Function
  ----- ------------  ---------------      ----- ------------  ---------------
     9      0.310389  1 C  pz                13      0.206962  1 C  pz
     5      0.205122  1 C  pz                15     -0.198904  2 H  s
    18      0.198904  3 H  s                 14     -0.153567  2 H  s
    17      0.153567  3 H  s

 Vector    5  Occ=2.000000D+00  E=-3.604822D-01  Symmetry=a'
              MO Center= -8.5D-02, -3.3D-01,  4.3D-18, r^2= 1.3D+00
   Bfn.  Coefficient  Atom+Function         Bfn.  Coefficient  Atom+Function
  ----- ------------  ---------------      ----- ------------  ---------------
     7      0.306462  1 C  px                11      0.221800  1 C  px
    21      0.212931  4 H  s                 24     -0.205521  5 H  s
     3      0.200478  1 C  px                20      0.150717  4 H  s

 Vector    6  Occ=0.000000D+00  E= 4.964577D-02  Symmetry=a'
              MO Center= -5.8D-02, -1.8D-01,  7.2D-16, r^2= 4.9D+00
   Bfn.  Coefficient  Atom+Function         Bfn.  Coefficient  Atom+Function
  ----- ------------  ---------------      ----- ------------  ---------------
    10      2.005391  1 C  s                 25     -0.780205  5 H  s
    22     -0.734115  4 H  s                 16     -0.694281  2 H  s
    19     -0.694281  3 H  s                  6      0.196750  1 C  s

 Vector    7  Occ=0.000000D+00  E= 1.160008D-01  Symmetry=a'
              MO Center= -4.7D-01, -7.7D-01,  2.9D-15, r^2= 3.9D+00
   Bfn.  Coefficient  Atom+Function         Bfn.  Coefficient  Atom+Function
  ----- ------------  ---------------      ----- ------------  ---------------
    25      1.846755  5 H  s                 22     -1.318685  4 H  s
    11      1.093817  1 C  px                16     -0.344497  2 H  s
    19     -0.344497  3 H  s                  7      0.229185  1 C  px
    12      0.191413  1 C  py                 3      0.172291  1 C  px

 Vector    8  Occ=0.000000D+00  E= 1.201610D-01  Symmetry=a'
              MO Center=  3.4D-01, -1.2D-01,  4.6D-17, r^2= 5.1D+00
   Bfn.  Coefficient  Atom+Function         Bfn.  Coefficient  Atom+Function
  ----- ------------  ---------------      ----- ------------  ---------------
    22      1.557334  4 H  s                 16     -1.197084  2 H  s
    19     -1.197084  3 H  s                 12      1.129804  1 C  py
    25      0.651220  5 H  s                  8      0.215096  1 C  py
    11     -0.169526  1 C  px                 4      0.162657  1 C  py

 Vector    9  Occ=0.000000D+00  E= 1.237227D-01  Symmetry=a"
              MO Center=  8.8D-02,  8.9D-01, -5.1D-15, r^2= 4.3D+00
   Bfn.  Coefficient  Atom+Function         Bfn.  Coefficient  Atom+Function
  ----- ------------  ---------------      ----- ------------  ---------------
    16      1.748457  2 H  s                 19     -1.748457  3 H  s
    13      1.170989  1 C  pz                 9      0.218339  1 C  pz
     5      0.166415  1 C  pz

 Vector   10  Occ=0.000000D+00  E= 2.675129D-01  Symmetry=a'
              MO Center= -1.7D-01, -8.7D-02, -8.5D-16, r^2= 3.4D+00
   Bfn.  Coefficient  Atom+Function         Bfn.  Coefficient  Atom+Function
  ----- ------------  ---------------      ----- ------------  ---------------
    21      1.027282  4 H  s                 24     -0.938078  5 H  s
    11     -0.879630  1 C  px                25      0.757316  5 H  s
    22     -0.733959  4 H  s                 12      0.214888  1 C  py

 Vector   11  Occ=0.000000D+00  E= 2.779949D-01  Symmetry=a"
              MO Center= -7.6D-02, -1.5D-01,  1.1D-15, r^2= 3.0D+00
   Bfn.  Coefficient  Atom+Function         Bfn.  Coefficient  Atom+Function
  ----- ------------  ---------------      ----- ------------  ---------------
    13      1.363990  1 C  pz                15      1.063575  2 H  s
    18     -1.063575  3 H  s                 16     -0.294982  2 H  s
    19      0.294982  3 H  s

 Vector   12  Occ=0.000000D+00  E= 3.023473D-01  Symmetry=a'
              MO Center=  3.0D-02,  2.5D-01,  5.4D-16, r^2= 2.8D+00
   Bfn.  Coefficient  Atom+Function         Bfn.  Coefficient  Atom+Function
  ----- ------------  ---------------      ----- ------------  ---------------
    12      1.702857  1 C  py                24      0.897367  5 H  s
    15     -0.846515  2 H  s                 18     -0.846515  3 H  s
    21      0.687146  4 H  s                 11      0.307674  1 C  px

 Vector   13  Occ=0.000000D+00  E= 5.116614D-01  Symmetry=a'
              MO Center= -3.4D-02, -1.5D-01, -9.8D-16, r^2= 2.6D+00
   Bfn.  Coefficient  Atom+Function         Bfn.  Coefficient  Atom+Function
  ----- ------------  ---------------      ----- ------------  ---------------
    10      1.691068  1 C  s                 21     -1.231149  4 H  s
    24     -1.179332  5 H  s                 15     -1.008519  2 H  s
    18     -1.008519  3 H  s                  6      0.448490  1 C  s
    25      0.422368  5 H  s                 12     -0.263009  1 C  py
    11      0.254576  1 C  px                16      0.222397  2 H  s

 Vector   14  Occ=0.000000D+00  E= 5.729744D-01  Symmetry=a'
              MO Center= -8.6D-02, -2.8D-01,  1.4D-15, r^2= 2.9D+00
   Bfn.  Coefficient  Atom+Function         Bfn.  Coefficient  Atom+Function
  ----- ------------  ---------------      ----- ------------  ---------------
    11      1.674790  1 C  px                25      1.581342  5 H  s
    22     -1.510159  4 H  s                  7     -1.026300  1 C  px
    21      0.565342  4 H  s                 24     -0.371017  5 H  s
     3     -0.270823  1 C  px

 Vector   15  Occ=0.000000D+00  E= 5.912198D-01  Symmetry=a'
              MO Center= -4.2D-03, -6.0D-02, -4.5D-14, r^2= 3.0D+00
   Bfn.  Coefficient  Atom+Function         Bfn.  Coefficient  Atom+Function
  ----- ------------  ---------------      ----- ------------  ---------------
    12      1.802264  1 C  py                22      1.226676  4 H  s
     8     -1.078107  1 C  py                16     -1.052854  2 H  s
    19     -1.052854  3 H  s                 25      0.974394  5 H  s
    15      0.447050  2 H  s                 18      0.447050  3 H  s
    10     -0.338922  1 C  s                 21     -0.289436  4 H  s


 center of mass
 --------------
 x =  -0.08728759 y =   0.00601869 z =   0.00000000

 moments of inertia (a.u.)
 ------------------
          12.783839917029          -0.496738131625           0.000000000000
          -0.496738131625          10.469439192780           0.000000000000
           0.000000000000           0.000000000000          11.904542061473

     Multipole analysis of the density
     ---------------------------------

     L   x y z        total         alpha         beta         nuclear
     -   - - -        -----         -----         ----         -------
     0   0 0 0     -0.000000     -5.000000     -5.000000     10.000000

     1   1 0 0      0.022489      0.432077      0.432077     -0.841666
     1   0 1 0     -0.044452      0.056665      0.056665     -0.157781
     1   0 0 1      0.000000      0.000000      0.000000      0.000000

     2   2 0 0     -6.815552     -5.821985     -5.821985      4.828418
     2   1 1 0      0.159939     -0.174027     -0.174027      0.507993
     2   1 0 1     -0.000000     -0.000000     -0.000000      0.000000
     2   0 2 0     -5.947835     -6.495901     -6.495901      7.043967
     2   0 1 1      0.000000      0.000000      0.000000      0.000000
     2   0 0 2     -6.338267     -5.984289     -5.984289      5.630311


 Parallel integral file used       4 records with       0 large values



                            NWChem DFT Gradient Module
                            --------------------------


                                        CH4



  charge          =   0.00
  wavefunction    = closed shell

  Using symmetry


                         DFT ENERGY GRADIENTS

    atom               coordinates                        gradient
                 x          y          z           x          y          z
   1 C      -0.092571   0.042920   0.000000    0.004081   0.045517   0.000000
   2 H       0.092358   1.215405  -1.677843    0.004250   0.005538   0.001819
   3 H       0.092358   1.215405   1.677843    0.004250   0.005538  -0.001819
   4 H       1.289162  -1.542055   0.000000   -0.011906  -0.021866   0.000000
   5 H      -1.760115  -1.304055   0.000000   -0.000675  -0.034727   0.000000

                 ----------------------------------------
                 |  Time  |  1-e(secs)   |  2-e(secs)   |
                 ----------------------------------------
                 |  CPU   |       0.00   |       0.06   |
                 ----------------------------------------
                 |  WALL  |       0.00   |       0.06   |
                 ----------------------------------------

  Step       Energy      Delta E   Gmax     Grms     Xrms     Xmax   Walltime
  ---- ---------------- -------- -------- -------- -------- -------- --------
@    1     -40.51123318 -2.2D-02  0.02353  0.01127  0.12036  0.28924      2.7




                                Z-matrix (autoz)
                                --------

 Units are Angstrom for bonds and degrees for angles

      Type          Name      I     J     K     L     M      Value     Gradient
      ----------- --------  ----- ----- ----- ----- ----- ---------- ----------
    1 Stretch                  1     2                       1.08759    0.00206
    2 Stretch                  1     3                       1.08759    0.00206
    3 Stretch                  1     4                       1.11270    0.00866
    4 Stretch                  1     5                       1.13435    0.02235
    5 Bend                     2     1     3               109.44546    0.00005
    6 Bend                     2     1     4               111.77062    0.00257
    7 Bend                     2     1     5               115.37041    0.00774
    8 Bend                     3     1     4               111.77062    0.00257
    9 Bend                     3     1     5               115.37041    0.00774
   10 Bend                     4     1     5                92.15103   -0.02353

 Restricting large step in mode    5 eval= 5.8D-02 step= 3.9D-01 new= 3.0D-01
 Restricting overall step due to large component. alpha=  0.85

                                 NWChem DFT Module
                                 -----------------


                                        CH4




 Summary of "ao basis" -> "ao basis" (cartesian)
 ------------------------------------------------------------------------------
       Tag                 Description            Shells   Functions and Types
 ---------------- ------------------------------  ------  ---------------------
 C                           6-311G                  7       13   4s3p
 H                           6-311G                  3        3   3s


      Symmetry analysis of basis
      --------------------------

        a'         19
        a"          6

  Caching 1-el integrals

            General Information
            -------------------
          SCF calculation type: DFT
          Wavefunction type:  closed shell.
          No. of atoms     :     5
          No. of electrons :    10
           Alpha electrons :     5
            Beta electrons :     5
          Charge           :     0
          Spin multiplicity:     1
          Use of symmetry is: on ; symmetry adaption is: on
          Maximum number of iterations:  30
          AO basis - number of functions:    25
                     number of shells:    19
          Convergence on energy requested: 1.00D-06
          Convergence on density requested: 1.00D-05
          Convergence on gradient requested: 5.00D-04

              XC Information
              --------------
                         B3LYP Method XC Potential
                     Hartree-Fock (Exact) Exchange  0.200
                        Slater Exchange Functional  0.800 local
                    Becke 1988 Exchange Functional  0.720 non-local
              Lee-Yang-Parr Correlation Functional  0.810
                  VWN I RPA Correlation Functional  0.190 local

             Grid Information
             ----------------
          Grid used for XC integration:  medium
          Radial quadrature: Mura-Knowles
          Angular quadrature: Lebedev.
          Tag              B.-S. Rad. Rad. Pts. Rad. Cut. Ang. Pts.
          ---              ---------- --------- --------- ---------
          C                   0.70       49           6.0       434
          H                   0.35       45           7.0       434
          Grid pruning is: on
          Number of quadrature shells:   184
          Spatial weights used:  Erf1

          Convergence Information
          -----------------------
          Convergence aids based upon iterative change in
          total energy or number of iterations.
          Levelshifting, if invoked, occurs when the
          HOMO/LUMO gap drops below (HL_TOL): 1.00D-02
          DIIS, if invoked, will attempt to extrapolate
          using up to (NFOCK): 10 stored Fock matrices.

                    Damping( 0%)  Levelshifting(0.5)       DIIS
                  --------------- ------------------- ---------------
          dE  on:    start            ASAP                start
          dE off:    2 iters         30 iters            30 iters


      Screening Tolerance Information
      -------------------------------
          Density screening/tol_rho: 1.00D-10
          AO Gaussian exp screening on grid/accAOfunc:  14
          CD Gaussian exp screening on grid/accCDfunc:  20
          XC Gaussian exp screening on grid/accXCfunc:  20
          Schwarz screening/accCoul: 1.00D-08


 Loading old vectors from job with title :

CH4


      Symmetry analysis of molecular orbitals - initial
      -------------------------------------------------

  Numbering of irreducible representations:

     1 a'          2 a"

  Orbital symmetries:

     1 a'          2 a'          3 a'          4 a"          5 a'
     6 a'          7 a'          8 a'          9 a"         10 a'
    11 a"         12 a'         13 a'         14 a'         15 a'

   Time after variat. SCF:      2.2
   Time prior to 1st pass:      2.2

 #quartets = 1.192D+04 #integrals = 2.991D+04 #direct =  0.0% #cached =100.0%


 Integral file          = ./scratch/nw.aoints.0
 Record size in doubles =  65536        No. of integs per rec  =  43688
 Max. records in memory =      2        Max. records in file   =  43657
 No. of bits per label  =      8        No. of bits per value  =     64


File balance: exchanges=     0  moved=     0  time=   0.0


 Grid_pts file          = ./scratch/nw.gridpts.0
 Record size in doubles =  12289        No. of grid_pts per rec  =   3070
 Max. records in memory =      9        Max. recs in file   =    232825


           Memory utilization after 1st SCF pass:
           Heap Space remaining (MW):       12.86            12863764
          Stack Space remaining (MW):       13.11            13106892

   convergence    iter        energy       DeltaE   RMS-Dens  Diis-err    time
 ---------------- ----- ----------------- --------- --------- ---------  ------
 d= 0,ls=0.0,diis     1    -40.5180117863 -5.39D+01  2.00D-03  4.52D-03     2.3
 d= 0,ls=0.0,diis     2    -40.5186462821 -6.34D-04  8.78D-04  8.77D-04     2.4
 d= 0,ls=0.0,diis     3    -40.5187022169 -5.59D-05  3.62D-04  4.61D-04     2.4
 d= 0,ls=0.0,diis     4    -40.5187595588 -5.73D-05  1.79D-05  1.41D-07     2.5
 d= 0,ls=0.0,diis     5    -40.5187595878 -2.90D-08  3.33D-06  6.40D-09     2.5


         Total DFT energy =      -40.518759587818
      One electron energy =      -79.717632468023
           Coulomb energy =       32.706334005683
    Exchange-Corr. energy =       -6.897659107183
 Nuclear repulsion energy =       13.390197981705

 Numeric. integr. density =       10.000000560660

     Total iterative time =      0.3s



                  Occupations of the irreducible representations
                  ----------------------------------------------

                     irrep           alpha         beta
                     --------     --------     --------
                     a'                4.0          4.0
                     a"                1.0          1.0


                       DFT Final Molecular Orbital Analysis
                       ------------------------------------

 Vector    1  Occ=2.000000D+00  E=-1.015318D+01  Symmetry=a'
              MO Center= -3.9D-02, -5.9D-03,  1.5D-17, r^2= 2.8D-02
   Bfn.  Coefficient  Atom+Function         Bfn.  Coefficient  Atom+Function
  ----- ------------  ---------------      ----- ------------  ---------------
     1      0.562784  1 C  s                  2      0.463991  1 C  s

 Vector    2  Occ=2.000000D+00  E=-6.990741D-01  Symmetry=a'
              MO Center= -3.7D-02, -3.2D-02, -8.9D-18, r^2= 1.0D+00
   Bfn.  Coefficient  Atom+Function         Bfn.  Coefficient  Atom+Function
  ----- ------------  ---------------      ----- ------------  ---------------
     6      0.462764  1 C  s                 10      0.346689  1 C  s
     2     -0.173215  1 C  s

 Vector    3  Occ=2.000000D+00  E=-4.077220D-01  Symmetry=a'
              MO Center= -4.6D-02, -2.0D-02, -2.1D-15, r^2= 1.3D+00
   Bfn.  Coefficient  Atom+Function         Bfn.  Coefficient  Atom+Function
  ----- ------------  ---------------      ----- ------------  ---------------
     8      0.308067  1 C  py                 4      0.201155  1 C  py
    12      0.198776  1 C  py

 Vector    4  Occ=2.000000D+00  E=-4.002317D-01  Symmetry=a"
              MO Center= -7.1D-03,  2.8D-01,  2.2D-15, r^2= 1.2D+00
   Bfn.  Coefficient  Atom+Function         Bfn.  Coefficient  Atom+Function
  ----- ------------  ---------------      ----- ------------  ---------------
     9      0.310780  1 C  pz                 5      0.204713  1 C  pz
    13      0.205106  1 C  pz                15     -0.198220  2 H  s
    18      0.198220  3 H  s                 14     -0.153619  2 H  s
    17      0.153619  3 H  s

 Vector    5  Occ=2.000000D+00  E=-3.802887D-01  Symmetry=a'
              MO Center= -6.8D-02, -3.3D-01, -4.5D-19, r^2= 1.3D+00
   Bfn.  Coefficient  Atom+Function         Bfn.  Coefficient  Atom+Function
  ----- ------------  ---------------      ----- ------------  ---------------
     7      0.307870  1 C  px                11      0.211081  1 C  px
    21      0.206092  4 H  s                 24     -0.203024  5 H  s
     3      0.201771  1 C  px                20      0.151581  4 H  s

 Vector    6  Occ=0.000000D+00  E= 5.234668D-02  Symmetry=a'
              MO Center= -4.6D-02, -1.0D-01, -7.3D-18, r^2= 5.0D+00
   Bfn.  Coefficient  Atom+Function         Bfn.  Coefficient  Atom+Function
  ----- ------------  ---------------      ----- ------------  ---------------
    10      2.043382  1 C  s                 25     -0.751915  5 H  s
    22     -0.747376  4 H  s                 16     -0.723488  2 H  s
    19     -0.723488  3 H  s                  6      0.190466  1 C  s

 Vector    7  Occ=0.000000D+00  E= 1.219563D-01  Symmetry=a'
              MO Center= -3.3D-01, -8.7D-01, -5.4D-15, r^2= 4.1D+00
   Bfn.  Coefficient  Atom+Function         Bfn.  Coefficient  Atom+Function
  ----- ------------  ---------------      ----- ------------  ---------------
    25      1.839877  5 H  s                 22     -1.548519  4 H  s
    11      1.134313  1 C  px                 7      0.226761  1 C  px
     3      0.170429  1 C  px                16     -0.157545  2 H  s
    19     -0.157545  3 H  s

 Vector    8  Occ=0.000000D+00  E= 1.234486D-01  Symmetry=a'
              MO Center=  1.6D-01, -7.5D-02, -3.9D-13, r^2= 5.1D+00
   Bfn.  Coefficient  Atom+Function         Bfn.  Coefficient  Atom+Function
  ----- ------------  ---------------      ----- ------------  ---------------
    22      1.408707  4 H  s                 16     -1.237589  2 H  s
    19     -1.237589  3 H  s                 12      1.149911  1 C  py
    25      0.973450  5 H  s                  8      0.218601  1 C  py
     4      0.165599  1 C  py

 Vector    9  Occ=0.000000D+00  E= 1.248237D-01  Symmetry=a"
              MO Center=  5.9D-02,  8.6D-01,  4.0D-13, r^2= 4.4D+00
   Bfn.  Coefficient  Atom+Function         Bfn.  Coefficient  Atom+Function
  ----- ------------  ---------------      ----- ------------  ---------------
    16      1.758448  2 H  s                 19     -1.758448  3 H  s
    13      1.163849  1 C  pz                 9      0.217655  1 C  pz
     5      0.165514  1 C  pz

 Vector   10  Occ=0.000000D+00  E= 2.729003D-01  Symmetry=a'
              MO Center= -5.4D-02,  4.0D-02, -2.9D-18, r^2= 3.2D+00
   Bfn.  Coefficient  Atom+Function         Bfn.  Coefficient  Atom+Function
  ----- ------------  ---------------      ----- ------------  ---------------
    11      1.127889  1 C  px                21     -1.035743  4 H  s
    24      1.008563  5 H  s                 22      0.500440  4 H  s
    25     -0.500381  5 H  s

 Vector   11  Occ=0.000000D+00  E= 2.815855D-01  Symmetry=a"
              MO Center= -6.0D-02, -2.0D-01, -6.6D-15, r^2= 2.9D+00
   Bfn.  Coefficient  Atom+Function         Bfn.  Coefficient  Atom+Function
  ----- ------------  ---------------      ----- ------------  ---------------
    13      1.411282  1 C  pz                15      1.073388  2 H  s
    18     -1.073388  3 H  s                 16     -0.246834  2 H  s
    19      0.246834  3 H  s

 Vector   12  Occ=0.000000D+00  E= 2.896309D-01  Symmetry=a'
              MO Center= -1.3D-02,  1.3D-01,  5.7D-15, r^2= 2.9D+00
   Bfn.  Coefficient  Atom+Function         Bfn.  Coefficient  Atom+Function
  ----- ------------  ---------------      ----- ------------  ---------------
    12      1.508693  1 C  py                15     -0.801368  2 H  s
    18     -0.801368  3 H  s                 24      0.783482  5 H  s
    21      0.732809  4 H  s                 11      0.188865  1 C  px

 Vector   13  Occ=0.000000D+00  E= 5.357026D-01  Symmetry=a'
              MO Center= -5.0D-02, -1.1D-01,  3.4D-16, r^2= 2.6D+00
   Bfn.  Coefficient  Atom+Function         Bfn.  Coefficient  Atom+Function
  ----- ------------  ---------------      ----- ------------  ---------------
    10      1.733730  1 C  s                 21     -1.197924  4 H  s
    24     -1.195201  5 H  s                 15     -1.074843  2 H  s
    18     -1.074843  3 H  s                  6      0.519402  1 C  s
    25      0.260736  5 H  s                 16      0.236607  2 H  s
    19      0.236607  3 H  s                 22      0.188905  4 H  s

 Vector   14  Occ=0.000000D+00  E= 5.847493D-01  Symmetry=a'
              MO Center= -7.7D-02, -3.3D-01,  3.3D-17, r^2= 2.9D+00
   Bfn.  Coefficient  Atom+Function         Bfn.  Coefficient  Atom+Function
  ----- ------------  ---------------      ----- ------------  ---------------
    11      1.708597  1 C  px                25      1.595519  5 H  s
    22     -1.553687  4 H  s                  7     -1.049178  1 C  px
    21      0.513064  4 H  s                 24     -0.481437  5 H  s
     3     -0.273462  1 C  px

 Vector   15  Occ=0.000000D+00  E= 5.945692D-01  Symmetry=a'
              MO Center= -2.6D-02, -5.0D-02,  4.6D-15, r^2= 3.0D+00
   Bfn.  Coefficient  Atom+Function         Bfn.  Coefficient  Atom+Function
  ----- ------------  ---------------      ----- ------------  ---------------
    12      1.754714  1 C  py                22      1.164446  4 H  s
    16     -1.094348  2 H  s                 19     -1.094348  3 H  s
    25      1.079588  5 H  s                  8     -1.074010  1 C  py
    15      0.415659  2 H  s                 18      0.415659  3 H  s
    21     -0.328970  4 H  s                 24     -0.301166  5 H  s


 center of mass
 --------------
 x =  -0.07385164 y =  -0.03098729 z =   0.00000000

 moments of inertia (a.u.)
 ------------------
          11.974378505172          -0.142829029966           0.000000000000
          -0.142829029966          10.987386523236           0.000000000000
           0.000000000000           0.000000000000          11.483481005379

     Multipole analysis of the density
     ---------------------------------

     L   x y z        total         alpha         beta         nuclear
     -   - - -        -----         -----         ----         -------
     0   0 0 0     -0.000000     -5.000000     -5.000000     10.000000

     1   1 0 0      0.001309      0.372499      0.372499     -0.743689
     1   0 1 0     -0.022551      0.202542      0.202542     -0.427634
     1   0 0 1     -0.000000     -0.000000     -0.000000      0.000000

     2   2 0 0     -6.535346     -5.899071     -5.899071      5.262796
     2   1 1 0      0.050734     -0.061312     -0.061312      0.173359
     2   1 0 1      0.000000      0.000000      0.000000      0.000000
     2   0 2 0     -6.162991     -6.182184     -6.182184      6.201377
     2   0 1 1      0.000000      0.000000      0.000000      0.000000
     2   0 0 2     -6.289140     -5.991861     -5.991861      5.694582


 Parallel integral file used       4 records with       0 large values

 Line search:
     step= 0.85 grad=-1.3D-02 hess= 4.4D-03 energy=    -40.518760 mode=downhill
 new step= 1.44                   predicted energy=    -40.520285

          --------
          Step   2
[...]
     5      0.166475  1 C  pz

 Vector    9  Occ=0.000000D+00  E= 1.246610D-01  Symmetry=a'
              MO Center= -9.2D-01, -2.8D-01,  9.1D-10, r^2= 4.3D+00
   Bfn.  Coefficient  Atom+Function         Bfn.  Coefficient  Atom+Function
  ----- ------------  ---------------      ----- ------------  ---------------
    25      2.048571  5 H  s                 16     -0.977422  2 H  s
    19     -0.977422  3 H  s                 12      0.832493  1 C  py
    11      0.796075  1 C  px                 8      0.159011  1 C  py
     7      0.152053  1 C  px

 Vector   10  Occ=0.000000D+00  E= 2.812968D-01  Symmetry=a'
              MO Center= -1.8D-01,  1.7D-02,  1.3D-13, r^2= 3.0D+00
   Bfn.  Coefficient  Atom+Function         Bfn.  Coefficient  Atom+Function
  ----- ------------  ---------------      ----- ------------  ---------------
    12      1.259423  1 C  py                21      1.176600  4 H  s
    15     -0.658476  2 H  s                 18     -0.658476  3 H  s
    11     -0.538357  1 C  px                22     -0.310301  4 H  s
    16      0.173624  2 H  s                 19      0.173624  3 H  s

 Vector   11  Occ=0.000000D+00  E= 2.813055D-01  Symmetry=a"
              MO Center= -5.8D-02, -2.1D-01, -2.7D-11, r^2= 3.0D+00
   Bfn.  Coefficient  Atom+Function         Bfn.  Coefficient  Atom+Function
  ----- ------------  ---------------      ----- ------------  ---------------
    13      1.369859  1 C  pz                15      1.065695  2 H  s
    18     -1.065695  3 H  s                 16     -0.280836  2 H  s
    19      0.280836  3 H  s

 Vector   12  Occ=0.000000D+00  E= 2.813059D-01  Symmetry=a'
              MO Center=  1.2D-01,  7.8D-02,  2.7D-11, r^2= 3.0D+00
   Bfn.  Coefficient  Atom+Function         Bfn.  Coefficient  Atom+Function
  ----- ------------  ---------------      ----- ------------  ---------------
    24      1.297656  5 H  s                 11      1.259604  1 C  px
    21     -0.564844  4 H  s                 12      0.538467  1 C  py
    15     -0.366384  2 H  s                 18     -0.366384  3 H  s
    25     -0.341957  5 H  s

 Vector   13  Occ=0.000000D+00  E= 5.425994D-01  Symmetry=a'
              MO Center= -4.0D-02, -3.9D-02,  3.0D-16, r^2= 2.6D+00
   Bfn.  Coefficient  Atom+Function         Bfn.  Coefficient  Atom+Function
  ----- ------------  ---------------      ----- ------------  ---------------
    10      1.783183  1 C  s                 15     -1.147335  2 H  s
    18     -1.147335  3 H  s                 21     -1.147430  4 H  s
    24     -1.147300  5 H  s                  6      0.531576  1 C  s
    16      0.223171  2 H  s                 19      0.223171  3 H  s
    22      0.223427  4 H  s                 25      0.223263  5 H  s

 Vector   14  Occ=0.000000D+00  E= 5.941589D-01  Symmetry=a'
              MO Center=  2.7D-01, -2.4D-01, -2.1D-12, r^2= 2.8D+00
   Bfn.  Coefficient  Atom+Function         Bfn.  Coefficient  Atom+Function
  ----- ------------  ---------------      ----- ------------  ---------------
    22      1.922009  4 H  s                 12      1.325713  1 C  py
    11     -1.114082  1 C  px                 8     -0.820951  1 C  py
    16     -0.780094  2 H  s                 19     -0.780094  3 H  s
     7      0.689894  1 C  px                21     -0.635338  4 H  s
    25     -0.361874  5 H  s                 15      0.258040  2 H  s

 Vector   15  Occ=0.000000D+00  E= 5.941687D-01  Symmetry=a'
              MO Center= -3.8D-01, -1.6D-01,  8.7D-10, r^2= 2.8D+00
   Bfn.  Coefficient  Atom+Function         Bfn.  Coefficient  Atom+Function
  ----- ------------  ---------------      ----- ------------  ---------------
    25      1.910693  5 H  s                 11      1.325725  1 C  px
    12      1.114073  1 C  py                 7     -0.820966  1 C  px
    16     -0.807506  2 H  s                 19     -0.807506  3 H  s
     8     -0.689902  1 C  py                24     -0.631756  5 H  s
    22     -0.295721  4 H  s                 15      0.266990  2 H  s


 center of mass
 --------------
 x =  -0.07578859 y =  -0.07446850 z =   0.00000000

 moments of inertia (a.u.)
 ------------------
          11.380521230915          -0.000060569997           0.000000000000
          -0.000060569997          11.380918128030           0.000000000000
           0.000000000000           0.000000000000          11.380665204507

     Multipole analysis of the density
     ---------------------------------

     L   x y z        total         alpha         beta         nuclear
     -   - - -        -----         -----         ----         -------
     0   0 0 0     -0.000000     -5.000000     -5.000000     10.000000

     1   1 0 0      0.000006      0.378910      0.378910     -0.757813
     1   0 1 0      0.000001      0.372353      0.372353     -0.744706
     1   0 0 1      0.000000      0.000000      0.000000      0.000000

     2   2 0 0     -6.315280     -6.009528     -6.009528      5.703776
     2   1 1 0      0.000059     -0.028218     -0.028218      0.056495
     2   1 0 1     -0.000000     -0.000000     -0.000000      0.000000
     2   0 2 0     -6.315408     -6.008410     -6.008410      5.701413
     2   0 1 1      0.000000      0.000000      0.000000      0.000000
     2   0 0 2     -6.315294     -5.980750     -5.980750      5.646206


 Parallel integral file used       4 records with       0 large values

 Line search:
     step= 1.00 grad=-3.2D-08 hess= 1.3D-08 energy=    -40.520621 mode=accept
 new step= 1.00                   predicted energy=    -40.520621

          --------
          Step   5
          --------


                         Geometry "geometry" -> "geometry"
                         ---------------------------------

 Output coordinates in angstroms (scale by  1.889725989 to convert to a.u.)

  No.       Tag          Charge          X              Y              Z
 ---- ---------------- ---------- -------------- -------------- --------------
    1 C                    6.0000    -0.04011209    -0.03940520     0.00000000
    2 H                    1.0000     0.02505332     0.58589953    -0.88912845
    3 H                    1.0000     0.02505332     0.58589953     0.88912845
    4 H                    1.0000     0.77912878    -0.75683317     0.00000000
    5 H                    1.0000    -0.98958044    -0.57261588     0.00000000

      Atomic Mass
      -----------

      C                 12.000000
      H                  1.007825


 Effective nuclear repulsion energy (a.u.)      13.4483199088

            Nuclear Dipole moment (a.u.)
            ----------------------------
        X                 Y               Z
 ---------------- ---------------- ----------------
    -0.7578133466    -0.7447055296     0.0000000000

      Symmetry information
      --------------------

 Group name             Cs
 Group number              2
 Group order               2
 No. of unique centers     4

      Symmetry unique atoms

     1    2    4    5


                                 NWChem DFT Module
                                 -----------------


                                        CH4




 Summary of "ao basis" -> "ao basis" (cartesian)
 ------------------------------------------------------------------------------
       Tag                 Description            Shells   Functions and Types
 ---------------- ------------------------------  ------  ---------------------
 C                           6-311G                  7       13   4s3p
 H                           6-311G                  3        3   3s


      Symmetry analysis of basis
      --------------------------

        a'         19
        a"          6


  The DFT is already converged

         Total DFT energy =    -40.520621253833



                            NWChem DFT Gradient Module
                            --------------------------


                                        CH4



  charge          =   0.00
  wavefunction    = closed shell

  Using symmetry


                         DFT ENERGY GRADIENTS

    atom               coordinates                        gradient
                 x          y          z           x          y          z
   1 C      -0.075801  -0.074465   0.000000   -0.000019   0.000012   0.000000
   2 H       0.047344   1.107190  -1.680209    0.000004  -0.000005   0.000003
   3 H       0.047344   1.107190   1.680209    0.000004  -0.000005  -0.000003
   4 H       1.472340  -1.430207   0.000000    0.000010  -0.000004   0.000000
   5 H      -1.870036  -1.082087   0.000000    0.000001   0.000002   0.000000

                 ----------------------------------------
                 |  Time  |  1-e(secs)   |  2-e(secs)   |
                 ----------------------------------------
                 |  CPU   |       0.00   |       0.06   |
                 ----------------------------------------
                 |  WALL  |       0.00   |       0.06   |
                 ----------------------------------------

  Step       Energy      Delta E   Gmax     Grms     Xrms     Xmax   Walltime
  ---- ---------------- -------- -------- -------- -------- -------- --------
@    5     -40.52062125 -1.9D-08  0.00001  0.00000  0.00011  0.00021      7.9
                                     ok       ok       ok       ok



                                Z-matrix (autoz)
                                --------

 Units are Angstrom for bonds and degrees for angles

      Type          Name      I     J     K     L     M      Value     Gradient
      ----------- --------  ----- ----- ----- ----- ----- ---------- ----------
    1 Stretch                  1     2                       1.08895   -0.00001
    2 Stretch                  1     3                       1.08895   -0.00001
    3 Stretch                  1     4                       1.08897    0.00001
    4 Stretch                  1     5                       1.08895   -0.00000
    5 Bend                     2     1     3               109.47274    0.00000
    6 Bend                     2     1     4               109.46857   -0.00000
    7 Bend                     2     1     5               109.47245    0.00000
    8 Bend                     3     1     4               109.46857   -0.00000
    9 Bend                     3     1     5               109.47245    0.00000
   10 Bend                     4     1     5               109.47255    0.00000


      ----------------------
      Optimization converged
      ----------------------


  Step       Energy      Delta E   Gmax     Grms     Xrms     Xmax   Walltime
  ---- ---------------- -------- -------- -------- -------- -------- --------
@    5     -40.52062125 -1.9D-08  0.00001  0.00000  0.00011  0.00021      7.9
                                     ok       ok       ok       ok



                                Z-matrix (autoz)
                                --------

 Units are Angstrom for bonds and degrees for angles

      Type          Name      I     J     K     L     M      Value     Gradient
      ----------- --------  ----- ----- ----- ----- ----- ---------- ----------
    1 Stretch                  1     2                       1.08895   -0.00001
    2 Stretch                  1     3                       1.08895   -0.00001
    3 Stretch                  1     4                       1.08897    0.00001
    4 Stretch                  1     5                       1.08895   -0.00000
    5 Bend                     2     1     3               109.47274    0.00000
    6 Bend                     2     1     4               109.46857   -0.00000
    7 Bend                     2     1     5               109.47245    0.00000
    8 Bend                     3     1     4               109.46857   -0.00000
    9 Bend                     3     1     5               109.47245    0.00000
   10 Bend                     4     1     5               109.47255    0.00000



                         Geometry "geometry" -> "geometry"
                         ---------------------------------

 Output coordinates in angstroms (scale by  1.889725989 to convert to a.u.)

  No.       Tag          Charge          X              Y              Z
 ---- ---------------- ---------- -------------- -------------- --------------
    1 C                    6.0000    -0.04011209    -0.03940520     0.00000000
    2 H                    1.0000     0.02505332     0.58589953    -0.88912845
    3 H                    1.0000     0.02505332     0.58589953     0.88912845
    4 H                    1.0000     0.77912878    -0.75683317     0.00000000
    5 H                    1.0000    -0.98958044    -0.57261588     0.00000000

      Atomic Mass
      -----------

      C                 12.000000
      H                  1.007825


 Effective nuclear repulsion energy (a.u.)      13.4483199088

            Nuclear Dipole moment (a.u.)
            ----------------------------
        X                 Y               Z
 ---------------- ---------------- ----------------
    -0.7578133466    -0.7447055296     0.0000000000

      Symmetry information
      --------------------

 Group name             Cs
 Group number              2
 Group order               2
 No. of unique centers     4

      Symmetry unique atoms

     1    2    4    5


                Final and change from initial internal coordinates
                --------------------------------------------------



                                Z-matrix (autoz)
                                --------

 Units are Angstrom for bonds and degrees for angles

      Type          Name      I     J     K     L     M      Value       Change
      ----------- --------  ----- ----- ----- ----- ----- ---------- ----------
    1 Stretch                  1     2                       1.08895    0.01895
    2 Stretch                  1     3                       1.08895    0.01895
    3 Stretch                  1     4                       1.08897    0.01897
    4 Stretch                  1     5                       1.08895    0.01895
    5 Bend                     2     1     3               109.47274    0.00153
    6 Bend                     2     1     4               109.46857  -12.28758
    7 Bend                     2     1     5               109.47245    0.00123
    8 Bend                     3     1     4               109.46857  -12.28758
    9 Bend                     3     1     5               109.47245    0.00123
   10 Bend                     4     1     5               109.47255   30.46255

 ==============================================================================
                                internuclear distances
 ------------------------------------------------------------------------------
       center one      |      center two      | atomic units |  angstroms
 ------------------------------------------------------------------------------
    2 H                |   1 C                |     2.05781  |     1.08895
    3 H                |   1 C                |     2.05781  |     1.08895
    4 H                |   1 C                |     2.05786  |     1.08897
    5 H                |   1 C                |     2.05781  |     1.08895
 ------------------------------------------------------------------------------
                         number of included internuclear distances:          4
 ==============================================================================



 ==============================================================================
                                 internuclear angles
 ------------------------------------------------------------------------------
        center 1       |       center 2       |       center 3       |  degrees
 ------------------------------------------------------------------------------
    2 H                |   1 C                |   3 H                |   109.47
    2 H                |   1 C                |   4 H                |   109.47
    2 H                |   1 C                |   5 H                |   109.47
    3 H                |   1 C                |   4 H                |   109.47
    3 H                |   1 C                |   5 H                |   109.47
    4 H                |   1 C                |   5 H                |   109.47
 ------------------------------------------------------------------------------
                            number of included internuclear angles:          6
 ==============================================================================




 Task  times  cpu:        6.0s     wall:        7.9s


                                NWChem Input Module
                                -------------------


 Summary of allocated global arrays
-----------------------------------
  No active global arrays



                         GA Statistics for process    0
                         ------------------------------

       create   destroy   get      put      acc     scatter   gather  read&inc
calls: 1568     1574     3.51e+04 4148     1.48e+04    0        0     1948
number of processes/call 1.23e+00 1.35e+00 1.11e+00 0.00e+00 0.00e+00
bytes total:             1.39e+07 2.42e+06 6.46e+06 0.00e+00 0.00e+00 1.56e+04
bytes remote:            6.29e+06 9.42e+05 2.06e+06 0.00e+00 0.00e+00 0.00e+00
Max memory consumed for GA by this process: 64712 bytes

MA_summarize_allocated_blocks: starting scan ...
MA_summarize_allocated_blocks: scan completed: 0 heap blocks, 0 stack blocks
MA usage statistics:

	allocation statistics:
					      heap	     stack
					      ----	     -----
	current number of blocks	         0	         0
	maximum number of blocks	        25	        54
	current total bytes		         0	         0
	maximum total bytes		   1947472	  22511208
	maximum total K-bytes		      1948	     22512
	maximum total M-bytes		         2	        23


                                     CITATION
                                     --------
                Please cite the following reference when publishing
                           results obtained with NWChem:

                 M. Valiev, E.J. Bylaska, N. Govind, K. Kowalski,
              T.P. Straatsma, H.J.J. van Dam, D. Wang, J. Nieplocha,
                        E. Apra, T.L. Windus, W.A. de Jong
                 "NWChem: a comprehensive and scalable open-source
                  solution for large scale molecular simulations"
                      Comput. Phys. Commun. 181, 1477 (2010)
                           doi:10.1016/j.cpc.2010.04.018

                                      AUTHORS
                                      -------
          E. Apra, E. J. Bylaska, W. A. de Jong, N. Govind, K. Kowalski,
       T. P. Straatsma, M. Valiev, H. J. J. van Dam, D. Wang, T. L. Windus,
        J. Hammond, J. Autschbach, K. Bhaskaran-Nair, J. Brabec, K. Lopata,
        S. Krishnamoorthy, W. Ma, M. Klemm, O. Villa, Y. Chen, V. Anisimov,
    F. Aquino, S. Hirata, M. T. Hackler, T. Risthaus, M. Malagoli, A. Marenich,
   A. Otero-de-la-Roza, J. Mullin, P. Nichols, R. Peverati, J. Pittner, Y. Zhao,
         P.-D. Fan, A. Fonari, R. J. Harrison, M. Dupuis, D. Silverstein,
    D. M. A. Smith, J. Nieplocha, V. Tipparaju, M. Krishnan, B. E. Van Kuiken,
        A. Vazquez-Mayagoitia, L. Jensen, M. Swart, Q. Wu, T. Van Voorhis,
     A. A. Auer, M. Nooijen, L. D. Crosby, E. Brown, G. Cisneros, G. I. Fann,
   H. Fruchtl, J. Garza, K. Hirao, R. A. Kendall, J. A. Nichols, K. Tsemekhman,
    K. Wolinski, J. Anchell, D. E. Bernholdt, P. Borowski, T. Clark, D. Clerc,
   H. Dachsel, M. J. O. Deegan, K. Dyall, D. Elwood, E. Glendening, M. Gutowski,
   A. C. Hess, J. Jaffe, B. G. Johnson, J. Ju, R. Kobayashi, R. Kutteh, Z. Lin,
   R. Littlefield, X. Long, B. Meng, T. Nakajima, S. Niu, L. Pollack, M. Rosing,
   K. Glaesemann, G. Sandrone, M. Stave, H. Taylor, G. Thomas, J. H. van Lenthe,
                               A. T. Wong, Z. Zhang.

 Total times  cpu:        6.0s     wall:        7.9s
